Compiler and run-time data
===========================================================================
RASPA 2.0.46
Compiled as a 64-bits application
Compiler: gcc 4.8.5 20150623 (Red Hat 4.8.5-44)
Compile Date = Oct 22 2021, Compile Time = 16:41:05

Tue Jan 11 00:01:08 2022
Simulation started on Tuesday, January 11.
The start time was 12:01 AM.

Hostname:    node094
OS type:     Linux on x86_64
OS release:  3.10.0-1160.25.1.el7.x86_64
OS version:  #1 SMP Wed Apr 28 21:49:45 UTC 2021

Simulation
===========================================================================
Dimensions: 3
Random number seed: 1641847969
RASPA directory set to: /mechthild/home/zhangx/RASPA/simulations/
String appended to output-files: 
Number of cycles: 100000
Number of initializing cycles: 50000
Number of equilibration cycles: 50000
Print every: 10000
Triclinic boundary condition applied
Timestep: 0.000500
	Degrees of freedom:                        72
	Translational Degrees of freedom:          72
	Rotational Degrees of freedom:             0
	Degrees of freedom Framework:              0


Mutual consistent basic set of units:
======================================
Unit of temperature: Kelvin
Unit of length:      1e-10 [m]
Unit of time:        1e-12 [s]
Unit of mass:        1.66054e-27 [kg]
Unit of charge:      1.60218e-19 [C/particle]

Derived units and their conversion factors:
===========================================
Unit of energy:              1.66054e-23 [J]
Unit of force:               1.66054e-13 [N]
Unit of pressure:            1.66054e+07 [Pa]
Unit of velocity:            100 [m/s]
Unit of acceleration:        1e-08 [m^2/s]
Unit of diffusion:           1e-08 [m^2/s]
Unit of dipole moment:       1.60218e-29 [C.m]
Unit of electric potential:  0.000103643 [V]
Unit of electric field:      1.03643e+06 [V]
Unit of polarizability:      1.54587e-35 [-]
Unit of Coulomb potential:   167101.0800066561  [K]
Unit of dielectric constant: 0.0000154587       [s^2 C^2/(kg m^3)]
Unit of wave vectors:        5.3088374589       [cm^1]
Boltzmann constant:          0.8314464919       [-]

Internal conversion factors:
===========================================
Energy to Kelvin:                                    1.2027242847
FH correction factor                                 2.0211930949
Heat capacity conversion factor:                    10.0000088723
From Debye to internal units:                        4.8032067991
Isothermal compressibility conversion factor:        0.0000000602

Energy conversion factors:
===========================================
From mdyne/A to kcal/mol/A^2:           143.933
From mdyne/A to kj/mol/A^2:             602.214
From mdyne/A to K/A^2:                  72429.7
From mdyne A/rad^2 to kcal/mol/deg^2:   0.0438444


Properties computed
===========================================================================
Movies: no
Radial Distribution Function: no
Number of molecules GCMC histogram: no
Histogram of the molecule positions: no
Free energy profiles: no
Pore Size Distribution Function: no
End-to-end distance: no
Histogram of the energy of the system: no
Compute thermodynamic factors: no
Framework spacing histograms: no
Residence times histograms: no
Distance histograms: no
Bend Angle histograms: no
Dihedral angle histograms: no
Angle between planes histograms: no
Molecule properties: no
Infra-red spectra: no
Mean-squared displacement using modified order-N algorithm: no
Velocity-autocorrelation function modified order-N algorithm: no
Rotational velocity-autocorrelation function modified order-N algorithm: no
Molecular orientation-autocorrelation function modified order-N algorithm: no
Bond orientation-autocorrelation function modified order-N algorithm: no
Mean-squared displacement (conventional algorithm): no
Velocity-autocorrelation function (conventional algorithm): no
3D density grid for adsorbates: no
Compute cation an/or adsorption sites: no
dcTST snapshots: no
Compute pressure and stress: no


VTK
===========================================================================
VTK fractional-range position framework atoms: [-0.001000,1.001000] [-0.001000,1.001000] [-0.001000,1.001000]
VTK fractional-range position framework bonds: [-0.151000,1.151000] [-0.151000,1.151000] [-0.151000,1.151000]
VTK fractional-range com-position adsorbate molecules: [-0.101000,1.101000] [-0.101000,1.101000] [-0.101000,1.101000]
VTK fractional-range com-position cation molecules: [-0.101000,1.101000] [-0.101000,1.101000] [-0.101000,1.101000]
	3D free energy grid made for the full simulation-cell


Thermo/Baro-stat NHC parameters
===========================================================================
External temperature: 300 [K]
Beta: 0.00400908 [energy unit]
Number of isotherm points: 5
	 point   0: External Pressure: 1013 [Pa]
	 point   1: External Pressure: 10132 [Pa]
	 point   2: External Pressure: 101325 [Pa]
	 point   3: External Pressure: 202650 [Pa]
		 point   4: External Pressure: 506625 [Pa]


Thermostat chain-length: 3
Timescale parameter for thermostat: 0.150000 [ps]
Barostat chain-length:   3
Timescale parameter for barostat:   0.150000 [ps]

Number of Yoshida-Suzuki decomposition steps: 5
Number of respa steps: 5


Method and settings for electrostatics
===============================================================================
Dielectric constant of the medium : 1.000000
Charge from charge-equilibration: no
Ewald summation is used (exact solution of a periodic system)
Relative precision                : 1e-06
Alpha convergence parameter       : 0.265058
kvec (x,y,z)                      : 8 8 8


CFC-RXMC parameters
===========================================================================
Number of reactions: 0


Rattle parameters
===========================================================================
Distance constraint type: r^2-r^2_0
Bend angle constraint type: theta-theta_0
Dihedral angle constraint type: phi-phi_0
Inversion-bend angle constraint type: chi-chi_0
Out-of-plane distance constraint type: r-r_0


Spectra parameters
===========================================================================
Compute normal modes: no


Minimization parameters
===========================================================================
Generalized coordinates are: Cartesian center-of-mass, elements of the orientational matrix p1,p2,p3 and strain
Potential derivatives are evaluated: analytically
Translation of the system is removed from the generalized Hessian: no
Rotation of the system is removed from the generalized Hessian: no
Maximum step-length: 0.3
Convergence factor: 1
Maximum number of minimization steps: 10000
Use gradients in the line-minimizations: yes
RMS gradient tolerance: 1e-06
Maximum gradient tolerance: 1e-06

Distance constraints: 0
Angle constraints: 0
Dihedral constraints: 0

Improper dihedral constraints: 0

Inversion-bend constraints: 0

Out-of-plane constraints: 0

Harmonic distance constraints: 0
Harmonic angle constraints: 0
Harmonic dihedral constraints: 0

Dihedral mid-point measurements: 0

All framework atoms are fixed

Fixed adsorbate atoms:  
Fixed adsorbate groups (center-of-mass):  
Fixed adsorbate groups (orientation):  

Fixed cation atoms:  
Fixed cation groups (center-of-mass):  
Fixed cation groups (orientation):  


dcTST parameters
===========================================================================
Free energy profiles computed: no
Free energy profiles written every 5000 cycles
Free energy mapping: mapped to a,b,c-coordinates
BarrierPosition:       0.0000000000       0.0000000000       0.0000000000
BarrierNormal:         0.0000000000       0.0000000000       0.0000000000
Start with a molecule on top of the barrier: no
Maximum distance to barrier (e.g. distance to minumum free energy):       0.0000000000 [A]
Maximum trajectory time:      10.0000000000 [ps]
Each configuration is used with 5 different initial velocities


Cbmc parameters
===========================================================================
Biasing method: using only the VDW part
Number of trial positions:                                       10
Number of trial positions (reinsertion):                         10
Number of trial positions (partial reinsertion):                 10
Number of trial positions (identity-change):                     10
Number of trial positions (Gibbs particle transfer):             10
Number of trial positions (insertion/deletion):                  10
Number of trial positions (Widom insertion):                     10
Number of trial positions coupled Torsion-selection:             100
Number of trial positions first bead:                            10
Number of trial positions first bead (reinsertion):              10
Number of trial positions first bead (partial reinsertion):      10
Number of trial positions first bead (identity-change):          10
Number of trial positions first bead (Gibbs particle transfer):  10
Number of trial positions first bead (insertion/deletion):       10
Number of trial positions first bead (Widom insertion):          10
Number of trial moves per open bead:                             150
Target acceptance ratio small-mc scheme:                         0.400000
Energy overlap criteria:                                         1e+07
Minimal Rosenbluth factor:                                       1e-150


Pseudo atoms: 34
===========================================================================
Pseudo Atom[   0] Name UNIT     Oxidation:          Element: H    pdb-name: H    Scat. Types:   1   1 Mass=1.000000000  B-factor:0.000   
                 Charge=1.000000000          Polarization=0.000000000  [A^3] (considered a charged atom and no polarization)  Interactions: yes
                 Anisotropic factor:    0.000 [-] (Absolute), Radius:    1.000 [A], Framework-atom:  no
Pseudo Atom[   1] Name CH3_SP3  Oxidation: +0       Element: C    pdb-name: C    Scat. Types:   7   6 Mass=15.034520000 B-factor:1.000   
                 Charge=0.000000000          Polarization=0.000000000  [A^3] (considered a chargeless atom and no polarization)  Interactions: yes
                 Anisotropic factor:    0.000 [-] (Absolute), Radius:    1.000 [A], Framework-atom:  no
Pseudo Atom[   2] Name CH2_SP2  Oxidation: +0       Element: C    pdb-name: C    Scat. Types:   7   6 Mass=14.026580000 B-factor:1.000   
                 Charge=0.000000000          Polarization=0.000000000  [A^3] (considered a chargeless atom and no polarization)  Interactions: yes
                 Anisotropic factor:    0.000 [-] (Absolute), Radius:    1.000 [A], Framework-atom:  no
Pseudo Atom[   3] Name CH_SP2   Oxidation: +0       Element: C    pdb-name: C    Scat. Types:   7   6 Mass=13.018640000 B-factor:1.000   
                 Charge=0.000000000          Polarization=0.000000000  [A^3] (considered a chargeless atom and no polarization)  Interactions: yes
                 Anisotropic factor:    0.000 [-] (Absolute), Radius:    1.000 [A], Framework-atom:  no
Pseudo Atom[   4] Name CH3_A    Oxidation: +0       Element: C    pdb-name: C    Scat. Types:   7   6 Mass=15.034520000 B-factor:1.000   
                 Charge=0.000000000          Polarization=0.000000000  [A^3] (considered a chargeless atom and no polarization)  Interactions: yes
                 Anisotropic factor:    0.000 [-] (Absolute), Radius:    1.000 [A], Framework-atom:  no
Pseudo Atom[   5] Name CH2_A    Oxidation: +0       Element: C    pdb-name: C    Scat. Types:   7   6 Mass=14.026580000 B-factor:1.000   
                 Charge=0.000000000          Polarization=0.000000000  [A^3] (considered a chargeless atom and no polarization)  Interactions: yes
                 Anisotropic factor:    0.000 [-] (Absolute), Radius:    1.000 [A], Framework-atom:  no
Pseudo Atom[   6] Name Fe4      Oxidation:          Element: Fe   pdb-name: Fe   Scat. Types:  27  26 Mass=55.845145624 B-factor:0.000   
                 Charge=1.000000000    (av)  Polarization=8.400000000  [A^3] (considered a charged atom and no polarization)  Interactions: yes
                 Anisotropic factor:    0.000 [-] (Absolute), Radius:    1.240 [A], Framework-atom: yes (charge from structure file)
Pseudo Atom[   7] Name Fe11     Oxidation:          Element: Fe   pdb-name: Fe   Scat. Types:  27  26 Mass=55.845145624 B-factor:0.000   
                 Charge=1.000000000    (av)  Polarization=8.400000000  [A^3] (considered a charged atom and no polarization)  Interactions: yes
                 Anisotropic factor:    0.000 [-] (Absolute), Radius:    1.240 [A], Framework-atom: yes (charge from structure file)
Pseudo Atom[   8] Name Fe18     Oxidation:          Element: Fe   pdb-name: Fe   Scat. Types:  27  26 Mass=55.845145624 B-factor:0.000   
                 Charge=1.000800000    (av)  Polarization=8.400000000  [A^3] (considered a charged atom and no polarization)  Interactions: yes
                 Anisotropic factor:    0.000 [-] (Absolute), Radius:    1.240 [A], Framework-atom: yes (charge from structure file)
Pseudo Atom[   9] Name Fe25     Oxidation:          Element: Fe   pdb-name: Fe   Scat. Types:  27  26 Mass=55.845145624 B-factor:0.000   
                 Charge=1.000000000    (av)  Polarization=8.400000000  [A^3] (considered a charged atom and no polarization)  Interactions: yes
                 Anisotropic factor:    0.000 [-] (Absolute), Radius:    1.240 [A], Framework-atom: yes (charge from structure file)
Pseudo Atom[  10] Name C51      Oxidation:          Element: C    pdb-name: C    Scat. Types:   7   6 Mass=12.010735897 B-factor:0.000   
                 Charge=-0.166700000   (av)  Polarization=1.760000000  [A^3] (considered a charged atom and no polarization)  Interactions: yes
                 Anisotropic factor:    0.000 [-] (Absolute), Radius:    0.750 [A], Framework-atom: yes (charge from structure file)
Pseudo Atom[  11] Name N52      Oxidation:          Element: N    pdb-name: N    Scat. Types:   8   7 Mass=14.006703212 B-factor:0.000   
                 Charge=-0.166700000   (av)  Polarization=1.100000000  [A^3] (considered a charged atom and no polarization)  Interactions: yes
                 Anisotropic factor:    0.000 [-] (Absolute), Radius:    0.710 [A], Framework-atom: yes (charge from structure file)
Pseudo Atom[  12] Name C49      Oxidation:          Element: C    pdb-name: C    Scat. Types:   7   6 Mass=12.010735897 B-factor:0.000   
                 Charge=-0.166700000   (av)  Polarization=1.760000000  [A^3] (considered a charged atom and no polarization)  Interactions: yes
                 Anisotropic factor:    0.000 [-] (Absolute), Radius:    0.750 [A], Framework-atom: yes (charge from structure file)
Pseudo Atom[  13] Name N50      Oxidation:          Element: N    pdb-name: N    Scat. Types:   8   7 Mass=14.006703212 B-factor:0.000   
                 Charge=-0.166700000   (av)  Polarization=1.100000000  [A^3] (considered a charged atom and no polarization)  Interactions: yes
                 Anisotropic factor:    0.000 [-] (Absolute), Radius:    0.710 [A], Framework-atom: yes (charge from structure file)
Pseudo Atom[  14] Name C47      Oxidation:          Element: C    pdb-name: C    Scat. Types:   7   6 Mass=12.010735897 B-factor:0.000   
                 Charge=-0.166700000   (av)  Polarization=1.760000000  [A^3] (considered a charged atom and no polarization)  Interactions: yes
                 Anisotropic factor:    0.000 [-] (Absolute), Radius:    0.750 [A], Framework-atom: yes (charge from structure file)
Pseudo Atom[  15] Name N48      Oxidation:          Element: N    pdb-name: N    Scat. Types:   8   7 Mass=14.006703212 B-factor:0.000   
                 Charge=-0.166700000   (av)  Polarization=1.100000000  [A^3] (considered a charged atom and no polarization)  Interactions: yes
                 Anisotropic factor:    0.000 [-] (Absolute), Radius:    0.710 [A], Framework-atom: yes (charge from structure file)
Pseudo Atom[  16] Name C45      Oxidation:          Element: C    pdb-name: C    Scat. Types:   7   6 Mass=12.010735897 B-factor:0.000   
                 Charge=-0.166700000   (av)  Polarization=1.760000000  [A^3] (considered a charged atom and no polarization)  Interactions: yes
                 Anisotropic factor:    0.000 [-] (Absolute), Radius:    0.750 [A], Framework-atom: yes (charge from structure file)
Pseudo Atom[  17] Name N46      Oxidation:          Element: N    pdb-name: N    Scat. Types:   8   7 Mass=14.006703212 B-factor:0.000   
                 Charge=-0.166700000   (av)  Polarization=1.100000000  [A^3] (considered a charged atom and no polarization)  Interactions: yes
                 Anisotropic factor:    0.000 [-] (Absolute), Radius:    0.710 [A], Framework-atom: yes (charge from structure file)
Pseudo Atom[  18] Name C43      Oxidation:          Element: C    pdb-name: C    Scat. Types:   7   6 Mass=12.010735897 B-factor:0.000   
                 Charge=-0.166700000   (av)  Polarization=1.760000000  [A^3] (considered a charged atom and no polarization)  Interactions: yes
                 Anisotropic factor:    0.000 [-] (Absolute), Radius:    0.750 [A], Framework-atom: yes (charge from structure file)
Pseudo Atom[  19] Name N44      Oxidation:          Element: N    pdb-name: N    Scat. Types:   8   7 Mass=14.006703212 B-factor:0.000   
                 Charge=-0.166700000   (av)  Polarization=1.100000000  [A^3] (considered a charged atom and no polarization)  Interactions: yes
                 Anisotropic factor:    0.000 [-] (Absolute), Radius:    0.710 [A], Framework-atom: yes (charge from structure file)
Pseudo Atom[  20] Name C41      Oxidation:          Element: C    pdb-name: C    Scat. Types:   7   6 Mass=12.010735897 B-factor:0.000   
                 Charge=-0.166700000   (av)  Polarization=1.760000000  [A^3] (considered a charged atom and no polarization)  Interactions: yes
                 Anisotropic factor:    0.000 [-] (Absolute), Radius:    0.750 [A], Framework-atom: yes (charge from structure file)
Pseudo Atom[  21] Name N42      Oxidation:          Element: N    pdb-name: N    Scat. Types:   8   7 Mass=14.006703212 B-factor:0.000   
                 Charge=-0.166700000   (av)  Polarization=1.100000000  [A^3] (considered a charged atom and no polarization)  Interactions: yes
                 Anisotropic factor:    0.000 [-] (Absolute), Radius:    0.710 [A], Framework-atom: yes (charge from structure file)
Pseudo Atom[  22] Name C39      Oxidation:          Element: C    pdb-name: C    Scat. Types:   7   6 Mass=12.010735897 B-factor:0.000   
                 Charge=-0.166700000   (av)  Polarization=1.760000000  [A^3] (considered a charged atom and no polarization)  Interactions: yes
                 Anisotropic factor:    0.000 [-] (Absolute), Radius:    0.750 [A], Framework-atom: yes (charge from structure file)
Pseudo Atom[  23] Name N40      Oxidation:          Element: N    pdb-name: N    Scat. Types:   8   7 Mass=14.006703212 B-factor:0.000   
                 Charge=-0.166700000   (av)  Polarization=1.100000000  [A^3] (considered a charged atom and no polarization)  Interactions: yes
                 Anisotropic factor:    0.000 [-] (Absolute), Radius:    0.710 [A], Framework-atom: yes (charge from structure file)
Pseudo Atom[  24] Name C37      Oxidation:          Element: C    pdb-name: C    Scat. Types:   7   6 Mass=12.010735897 B-factor:0.000   
                 Charge=-0.166700000   (av)  Polarization=1.760000000  [A^3] (considered a charged atom and no polarization)  Interactions: yes
                 Anisotropic factor:    0.000 [-] (Absolute), Radius:    0.750 [A], Framework-atom: yes (charge from structure file)
Pseudo Atom[  25] Name N38      Oxidation:          Element: N    pdb-name: N    Scat. Types:   8   7 Mass=14.006703212 B-factor:0.000   
                 Charge=-0.166700000   (av)  Polarization=1.100000000  [A^3] (considered a charged atom and no polarization)  Interactions: yes
                 Anisotropic factor:    0.000 [-] (Absolute), Radius:    0.710 [A], Framework-atom: yes (charge from structure file)
Pseudo Atom[  26] Name C35      Oxidation:          Element: C    pdb-name: C    Scat. Types:   7   6 Mass=12.010735897 B-factor:0.000   
                 Charge=-0.166700000   (av)  Polarization=1.760000000  [A^3] (considered a charged atom and no polarization)  Interactions: yes
                 Anisotropic factor:    0.000 [-] (Absolute), Radius:    0.750 [A], Framework-atom: yes (charge from structure file)
Pseudo Atom[  27] Name N36      Oxidation:          Element: N    pdb-name: N    Scat. Types:   8   7 Mass=14.006703212 B-factor:0.000   
                 Charge=-0.166700000   (av)  Polarization=1.100000000  [A^3] (considered a charged atom and no polarization)  Interactions: yes
                 Anisotropic factor:    0.000 [-] (Absolute), Radius:    0.710 [A], Framework-atom: yes (charge from structure file)
Pseudo Atom[  28] Name C33      Oxidation:          Element: C    pdb-name: C    Scat. Types:   7   6 Mass=12.010735897 B-factor:0.000   
                 Charge=-0.166700000   (av)  Polarization=1.760000000  [A^3] (considered a charged atom and no polarization)  Interactions: yes
                 Anisotropic factor:    0.000 [-] (Absolute), Radius:    0.750 [A], Framework-atom: yes (charge from structure file)
Pseudo Atom[  29] Name N34      Oxidation:          Element: N    pdb-name: N    Scat. Types:   8   7 Mass=14.006703212 B-factor:0.000   
                 Charge=-0.166700000   (av)  Polarization=1.100000000  [A^3] (considered a charged atom and no polarization)  Interactions: yes
                 Anisotropic factor:    0.000 [-] (Absolute), Radius:    0.710 [A], Framework-atom: yes (charge from structure file)
Pseudo Atom[  30] Name C31      Oxidation:          Element: C    pdb-name: C    Scat. Types:   7   6 Mass=12.010735897 B-factor:0.000   
                 Charge=-0.166700000   (av)  Polarization=1.760000000  [A^3] (considered a charged atom and no polarization)  Interactions: yes
                 Anisotropic factor:    0.000 [-] (Absolute), Radius:    0.750 [A], Framework-atom: yes (charge from structure file)
Pseudo Atom[  31] Name N32      Oxidation:          Element: N    pdb-name: N    Scat. Types:   8   7 Mass=14.006703212 B-factor:0.000   
                 Charge=-0.166700000   (av)  Polarization=1.100000000  [A^3] (considered a charged atom and no polarization)  Interactions: yes
                 Anisotropic factor:    0.000 [-] (Absolute), Radius:    0.710 [A], Framework-atom: yes (charge from structure file)
Pseudo Atom[  32] Name C29      Oxidation:          Element: C    pdb-name: C    Scat. Types:   7   6 Mass=12.010735897 B-factor:0.000   
                 Charge=-0.166700000   (av)  Polarization=1.760000000  [A^3] (considered a charged atom and no polarization)  Interactions: yes
                 Anisotropic factor:    0.000 [-] (Absolute), Radius:    0.750 [A], Framework-atom: yes (charge from structure file)
Pseudo Atom[  33] Name N30      Oxidation:          Element: N    pdb-name: N    Scat. Types:   8   7 Mass=14.006703212 B-factor:0.000   
                 Charge=-0.166700000   (av)  Polarization=1.100000000  [A^3] (considered a charged atom and no polarization)  Interactions: yes
                 Anisotropic factor:    0.000 [-] (Absolute), Radius:    0.710 [A], Framework-atom: yes (charge from structure file)


Forcefield: ForceFieldPAPE
===========================================================================
Minimal distance: 1
CutOff VDW : 12.000000 (144.000000)
CutOff VDW switching on: 10.800000 (116.640000)
CutOff charge-charge : 12.000000 (144.000000)
CutOff charge-charge switching on: 7.800000 (60.840000)
CutOff charge-bonddipole : 12.000000 (144.000000)
CutOff charge-bondipole switching on: 8.400000 (70.560000)
CutOff bonddipole-bonddipole : 12.000000 (144.000000)
CutOff bonddipole-bondipole switching on: 9.000000 (81.000000)
Polarization is neglected
All potentials are shifted to zero at the Cutoff

General mixing rule: Lorentz-Berthelot mixing rules are used FIRST for cross terms
0 cross terms are overwritten using the individual mixing rules from the file 'force_field_mixing_rules.def'
and then 0 terms are overwritten using the specific interactions from the file 'force_field.def'

The force field and all the interactions:
CH3_SP3 - CH3_SP3 [LENNARD_JONES] p_0/k_B:  98.00000 [K], p_1: 3.75000 [A], shift/k_B:  -0.36473844 [K], tailcorrection: no
CH3_SP3 - CH2_SP2 [LENNARD_JONES] p_0/k_B:  91.26883 [K], p_1: 3.71250 [A], shift/k_B:  -0.31982531 [K], tailcorrection: no
CH3_SP3 -  CH_SP2 [LENNARD_JONES] p_0/k_B:  67.86752 [K], p_1: 3.74000 [A], shift/k_B:  -0.24857982 [K], tailcorrection: no
CH3_SP3 -   CH3_A [LENNARD_JONES] p_0/k_B:  98.00000 [K], p_1: 3.75000 [A], shift/k_B:  -0.36473844 [K], tailcorrection: no
CH3_SP3 -   CH2_A [LENNARD_JONES] p_0/k_B:  67.14164 [K], p_1: 3.85000 [A], shift/k_B:  -0.29258694 [K], tailcorrection: no
CH3_SP3 -     Fe4 [LENNARD_JONES] p_0/k_B:  25.31998 [K], p_1: 3.17215 [A], shift/k_B:  -0.03454697 [K], tailcorrection: no
CH3_SP3 -    Fe11 [LENNARD_JONES] p_0/k_B:  25.31998 [K], p_1: 3.17215 [A], shift/k_B:  -0.03454697 [K], tailcorrection: no
CH3_SP3 -    Fe18 [LENNARD_JONES] p_0/k_B:  25.31998 [K], p_1: 3.17215 [A], shift/k_B:  -0.03454697 [K], tailcorrection: no
CH3_SP3 -    Fe25 [LENNARD_JONES] p_0/k_B:  25.31998 [K], p_1: 3.17215 [A], shift/k_B:  -0.03454697 [K], tailcorrection: no
CH3_SP3 -     C51 [LENNARD_JONES] p_0/k_B:  71.95923 [K], p_1: 3.59042 [A], shift/k_B:  -0.20635856 [K], tailcorrection: no
CH3_SP3 -     N52 [LENNARD_JONES] p_0/k_B:  58.33328 [K], p_1: 3.50535 [A], shift/k_B:  -0.14487839 [K], tailcorrection: no
CH3_SP3 -     C49 [LENNARD_JONES] p_0/k_B:  71.95923 [K], p_1: 3.59042 [A], shift/k_B:  -0.20635856 [K], tailcorrection: no
CH3_SP3 -     N50 [LENNARD_JONES] p_0/k_B:  58.33328 [K], p_1: 3.50535 [A], shift/k_B:  -0.14487839 [K], tailcorrection: no
CH3_SP3 -     C47 [LENNARD_JONES] p_0/k_B:  71.95923 [K], p_1: 3.59042 [A], shift/k_B:  -0.20635856 [K], tailcorrection: no
CH3_SP3 -     N48 [LENNARD_JONES] p_0/k_B:  58.33328 [K], p_1: 3.50535 [A], shift/k_B:  -0.14487839 [K], tailcorrection: no
CH3_SP3 -     C45 [LENNARD_JONES] p_0/k_B:  71.95923 [K], p_1: 3.59042 [A], shift/k_B:  -0.20635856 [K], tailcorrection: no
CH3_SP3 -     N46 [LENNARD_JONES] p_0/k_B:  58.33328 [K], p_1: 3.50535 [A], shift/k_B:  -0.14487839 [K], tailcorrection: no
CH3_SP3 -     C43 [LENNARD_JONES] p_0/k_B:  71.95923 [K], p_1: 3.59042 [A], shift/k_B:  -0.20635856 [K], tailcorrection: no
CH3_SP3 -     N44 [LENNARD_JONES] p_0/k_B:  58.33328 [K], p_1: 3.50535 [A], shift/k_B:  -0.14487839 [K], tailcorrection: no
CH3_SP3 -     C41 [LENNARD_JONES] p_0/k_B:  71.95923 [K], p_1: 3.59042 [A], shift/k_B:  -0.20635856 [K], tailcorrection: no
CH3_SP3 -     N42 [LENNARD_JONES] p_0/k_B:  58.33328 [K], p_1: 3.50535 [A], shift/k_B:  -0.14487839 [K], tailcorrection: no
CH3_SP3 -     C39 [LENNARD_JONES] p_0/k_B:  71.95923 [K], p_1: 3.59042 [A], shift/k_B:  -0.20635856 [K], tailcorrection: no
CH3_SP3 -     N40 [LENNARD_JONES] p_0/k_B:  58.33328 [K], p_1: 3.50535 [A], shift/k_B:  -0.14487839 [K], tailcorrection: no
CH3_SP3 -     C37 [LENNARD_JONES] p_0/k_B:  71.95923 [K], p_1: 3.59042 [A], shift/k_B:  -0.20635856 [K], tailcorrection: no
CH3_SP3 -     N38 [LENNARD_JONES] p_0/k_B:  58.33328 [K], p_1: 3.50535 [A], shift/k_B:  -0.14487839 [K], tailcorrection: no
CH3_SP3 -     C35 [LENNARD_JONES] p_0/k_B:  71.95923 [K], p_1: 3.59042 [A], shift/k_B:  -0.20635856 [K], tailcorrection: no
CH3_SP3 -     N36 [LENNARD_JONES] p_0/k_B:  58.33328 [K], p_1: 3.50535 [A], shift/k_B:  -0.14487839 [K], tailcorrection: no
CH3_SP3 -     C33 [LENNARD_JONES] p_0/k_B:  71.95923 [K], p_1: 3.59042 [A], shift/k_B:  -0.20635856 [K], tailcorrection: no
CH3_SP3 -     N34 [LENNARD_JONES] p_0/k_B:  58.33328 [K], p_1: 3.50535 [A], shift/k_B:  -0.14487839 [K], tailcorrection: no
CH3_SP3 -     C31 [LENNARD_JONES] p_0/k_B:  71.95923 [K], p_1: 3.59042 [A], shift/k_B:  -0.20635856 [K], tailcorrection: no
CH3_SP3 -     N32 [LENNARD_JONES] p_0/k_B:  58.33328 [K], p_1: 3.50535 [A], shift/k_B:  -0.14487839 [K], tailcorrection: no
CH3_SP3 -     C29 [LENNARD_JONES] p_0/k_B:  71.95923 [K], p_1: 3.59042 [A], shift/k_B:  -0.20635856 [K], tailcorrection: no
CH3_SP3 -     N30 [LENNARD_JONES] p_0/k_B:  58.33328 [K], p_1: 3.50535 [A], shift/k_B:  -0.14487839 [K], tailcorrection: no
CH2_SP2 - CH2_SP2 [LENNARD_JONES] p_0/k_B:  85.00000 [K], p_1: 3.67500 [A], shift/k_B:  -0.28027029 [K], tailcorrection: no
CH2_SP2 -  CH_SP2 [LENNARD_JONES] p_0/k_B:  63.20601 [K], p_1: 3.70250 [A], shift/k_B:  -0.21793474 [K], tailcorrection: no
CH2_SP2 -   CH3_A [LENNARD_JONES] p_0/k_B:  91.26883 [K], p_1: 3.71250 [A], shift/k_B:  -0.31982531 [K], tailcorrection: no
CH2_SP2 -   CH2_A [LENNARD_JONES] p_0/k_B:  62.52999 [K], p_1: 3.81250 [A], shift/k_B:  -0.25696451 [K], tailcorrection: no
CH2_SP2 -     Fe4 [LENNARD_JONES] p_0/k_B:  23.58087 [K], p_1: 3.13465 [A], shift/k_B:  -0.02995909 [K], tailcorrection: no
CH2_SP2 -    Fe11 [LENNARD_JONES] p_0/k_B:  23.58087 [K], p_1: 3.13465 [A], shift/k_B:  -0.02995909 [K], tailcorrection: no
CH2_SP2 -    Fe18 [LENNARD_JONES] p_0/k_B:  23.58087 [K], p_1: 3.13465 [A], shift/k_B:  -0.02995909 [K], tailcorrection: no
CH2_SP2 -    Fe25 [LENNARD_JONES] p_0/k_B:  23.58087 [K], p_1: 3.13465 [A], shift/k_B:  -0.02995909 [K], tailcorrection: no
CH2_SP2 -     C51 [LENNARD_JONES] p_0/k_B:  67.01668 [K], p_1: 3.55293 [A], shift/k_B:  -0.18045920 [K], tailcorrection: no
CH2_SP2 -     N52 [LENNARD_JONES] p_0/k_B:  54.32664 [K], p_1: 3.46784 [A], shift/k_B:  -0.12649996 [K], tailcorrection: no
CH2_SP2 -     C49 [LENNARD_JONES] p_0/k_B:  67.01668 [K], p_1: 3.55293 [A], shift/k_B:  -0.18045920 [K], tailcorrection: no
CH2_SP2 -     N50 [LENNARD_JONES] p_0/k_B:  54.32664 [K], p_1: 3.46784 [A], shift/k_B:  -0.12649996 [K], tailcorrection: no
CH2_SP2 -     C47 [LENNARD_JONES] p_0/k_B:  67.01668 [K], p_1: 3.55293 [A], shift/k_B:  -0.18045920 [K], tailcorrection: no
CH2_SP2 -     N48 [LENNARD_JONES] p_0/k_B:  54.32664 [K], p_1: 3.46784 [A], shift/k_B:  -0.12649996 [K], tailcorrection: no
CH2_SP2 -     C45 [LENNARD_JONES] p_0/k_B:  67.01668 [K], p_1: 3.55293 [A], shift/k_B:  -0.18045920 [K], tailcorrection: no
CH2_SP2 -     N46 [LENNARD_JONES] p_0/k_B:  54.32664 [K], p_1: 3.46784 [A], shift/k_B:  -0.12649996 [K], tailcorrection: no
CH2_SP2 -     C43 [LENNARD_JONES] p_0/k_B:  67.01668 [K], p_1: 3.55293 [A], shift/k_B:  -0.18045920 [K], tailcorrection: no
CH2_SP2 -     N44 [LENNARD_JONES] p_0/k_B:  54.32664 [K], p_1: 3.46784 [A], shift/k_B:  -0.12649996 [K], tailcorrection: no
CH2_SP2 -     C41 [LENNARD_JONES] p_0/k_B:  67.01668 [K], p_1: 3.55293 [A], shift/k_B:  -0.18045920 [K], tailcorrection: no
CH2_SP2 -     N42 [LENNARD_JONES] p_0/k_B:  54.32664 [K], p_1: 3.46784 [A], shift/k_B:  -0.12649996 [K], tailcorrection: no
CH2_SP2 -     C39 [LENNARD_JONES] p_0/k_B:  67.01668 [K], p_1: 3.55293 [A], shift/k_B:  -0.18045920 [K], tailcorrection: no
CH2_SP2 -     N40 [LENNARD_JONES] p_0/k_B:  54.32664 [K], p_1: 3.46784 [A], shift/k_B:  -0.12649996 [K], tailcorrection: no
CH2_SP2 -     C37 [LENNARD_JONES] p_0/k_B:  67.01668 [K], p_1: 3.55293 [A], shift/k_B:  -0.18045920 [K], tailcorrection: no
CH2_SP2 -     N38 [LENNARD_JONES] p_0/k_B:  54.32664 [K], p_1: 3.46784 [A], shift/k_B:  -0.12649996 [K], tailcorrection: no
CH2_SP2 -     C35 [LENNARD_JONES] p_0/k_B:  67.01668 [K], p_1: 3.55293 [A], shift/k_B:  -0.18045920 [K], tailcorrection: no
CH2_SP2 -     N36 [LENNARD_JONES] p_0/k_B:  54.32664 [K], p_1: 3.46784 [A], shift/k_B:  -0.12649996 [K], tailcorrection: no
CH2_SP2 -     C33 [LENNARD_JONES] p_0/k_B:  67.01668 [K], p_1: 3.55293 [A], shift/k_B:  -0.18045920 [K], tailcorrection: no
CH2_SP2 -     N34 [LENNARD_JONES] p_0/k_B:  54.32664 [K], p_1: 3.46784 [A], shift/k_B:  -0.12649996 [K], tailcorrection: no
CH2_SP2 -     C31 [LENNARD_JONES] p_0/k_B:  67.01668 [K], p_1: 3.55293 [A], shift/k_B:  -0.18045920 [K], tailcorrection: no
CH2_SP2 -     N32 [LENNARD_JONES] p_0/k_B:  54.32664 [K], p_1: 3.46784 [A], shift/k_B:  -0.12649996 [K], tailcorrection: no
CH2_SP2 -     C29 [LENNARD_JONES] p_0/k_B:  67.01668 [K], p_1: 3.55293 [A], shift/k_B:  -0.18045920 [K], tailcorrection: no
CH2_SP2 -     N30 [LENNARD_JONES] p_0/k_B:  54.32664 [K], p_1: 3.46784 [A], shift/k_B:  -0.12649996 [K], tailcorrection: no
 CH_SP2 -  CH_SP2 [LENNARD_JONES] p_0/k_B:  47.00000 [K], p_1: 3.73000 [A], shift/k_B:  -0.16940705 [K], tailcorrection: no
 CH_SP2 -   CH3_A [LENNARD_JONES] p_0/k_B:  67.86752 [K], p_1: 3.74000 [A], shift/k_B:  -0.24857982 [K], tailcorrection: no
 CH_SP2 -   CH2_A [LENNARD_JONES] p_0/k_B:  46.49731 [K], p_1: 3.84000 [A], shift/k_B:  -0.19949000 [K], tailcorrection: no
 CH_SP2 -     Fe4 [LENNARD_JONES] p_0/k_B:  17.53474 [K], p_1: 3.16215 [A], shift/k_B:  -0.02347584 [K], tailcorrection: no
 CH_SP2 -    Fe11 [LENNARD_JONES] p_0/k_B:  17.53474 [K], p_1: 3.16215 [A], shift/k_B:  -0.02347584 [K], tailcorrection: no
 CH_SP2 -    Fe18 [LENNARD_JONES] p_0/k_B:  17.53474 [K], p_1: 3.16215 [A], shift/k_B:  -0.02347584 [K], tailcorrection: no
 CH_SP2 -    Fe25 [LENNARD_JONES] p_0/k_B:  17.53474 [K], p_1: 3.16215 [A], shift/k_B:  -0.02347584 [K], tailcorrection: no
 CH_SP2 -     C51 [LENNARD_JONES] p_0/k_B:  49.83362 [K], p_1: 3.58042 [A], shift/k_B:  -0.14053868 [K], tailcorrection: no
 CH_SP2 -     N52 [LENNARD_JONES] p_0/k_B:  40.39730 [K], p_1: 3.49534 [A], shift/k_B:  -0.09862790 [K], tailcorrection: no
 CH_SP2 -     C49 [LENNARD_JONES] p_0/k_B:  49.83362 [K], p_1: 3.58042 [A], shift/k_B:  -0.14053868 [K], tailcorrection: no
 CH_SP2 -     N50 [LENNARD_JONES] p_0/k_B:  40.39730 [K], p_1: 3.49534 [A], shift/k_B:  -0.09862790 [K], tailcorrection: no
 CH_SP2 -     C47 [LENNARD_JONES] p_0/k_B:  49.83362 [K], p_1: 3.58042 [A], shift/k_B:  -0.14053868 [K], tailcorrection: no
 CH_SP2 -     N48 [LENNARD_JONES] p_0/k_B:  40.39730 [K], p_1: 3.49534 [A], shift/k_B:  -0.09862790 [K], tailcorrection: no
 CH_SP2 -     C45 [LENNARD_JONES] p_0/k_B:  49.83362 [K], p_1: 3.58042 [A], shift/k_B:  -0.14053868 [K], tailcorrection: no
 CH_SP2 -     N46 [LENNARD_JONES] p_0/k_B:  40.39730 [K], p_1: 3.49534 [A], shift/k_B:  -0.09862790 [K], tailcorrection: no
 CH_SP2 -     C43 [LENNARD_JONES] p_0/k_B:  49.83362 [K], p_1: 3.58042 [A], shift/k_B:  -0.14053868 [K], tailcorrection: no
 CH_SP2 -     N44 [LENNARD_JONES] p_0/k_B:  40.39730 [K], p_1: 3.49534 [A], shift/k_B:  -0.09862790 [K], tailcorrection: no
 CH_SP2 -     C41 [LENNARD_JONES] p_0/k_B:  49.83362 [K], p_1: 3.58042 [A], shift/k_B:  -0.14053868 [K], tailcorrection: no
 CH_SP2 -     N42 [LENNARD_JONES] p_0/k_B:  40.39730 [K], p_1: 3.49534 [A], shift/k_B:  -0.09862790 [K], tailcorrection: no
 CH_SP2 -     C39 [LENNARD_JONES] p_0/k_B:  49.83362 [K], p_1: 3.58042 [A], shift/k_B:  -0.14053868 [K], tailcorrection: no
 CH_SP2 -     N40 [LENNARD_JONES] p_0/k_B:  40.39730 [K], p_1: 3.49534 [A], shift/k_B:  -0.09862790 [K], tailcorrection: no
 CH_SP2 -     C37 [LENNARD_JONES] p_0/k_B:  49.83362 [K], p_1: 3.58042 [A], shift/k_B:  -0.14053868 [K], tailcorrection: no
 CH_SP2 -     N38 [LENNARD_JONES] p_0/k_B:  40.39730 [K], p_1: 3.49534 [A], shift/k_B:  -0.09862790 [K], tailcorrection: no
 CH_SP2 -     C35 [LENNARD_JONES] p_0/k_B:  49.83362 [K], p_1: 3.58042 [A], shift/k_B:  -0.14053868 [K], tailcorrection: no
 CH_SP2 -     N36 [LENNARD_JONES] p_0/k_B:  40.39730 [K], p_1: 3.49534 [A], shift/k_B:  -0.09862790 [K], tailcorrection: no
 CH_SP2 -     C33 [LENNARD_JONES] p_0/k_B:  49.83362 [K], p_1: 3.58042 [A], shift/k_B:  -0.14053868 [K], tailcorrection: no
 CH_SP2 -     N34 [LENNARD_JONES] p_0/k_B:  40.39730 [K], p_1: 3.49534 [A], shift/k_B:  -0.09862790 [K], tailcorrection: no
 CH_SP2 -     C31 [LENNARD_JONES] p_0/k_B:  49.83362 [K], p_1: 3.58042 [A], shift/k_B:  -0.14053868 [K], tailcorrection: no
 CH_SP2 -     N32 [LENNARD_JONES] p_0/k_B:  40.39730 [K], p_1: 3.49534 [A], shift/k_B:  -0.09862790 [K], tailcorrection: no
 CH_SP2 -     C29 [LENNARD_JONES] p_0/k_B:  49.83362 [K], p_1: 3.58042 [A], shift/k_B:  -0.14053868 [K], tailcorrection: no
 CH_SP2 -     N30 [LENNARD_JONES] p_0/k_B:  40.39730 [K], p_1: 3.49534 [A], shift/k_B:  -0.09862790 [K], tailcorrection: no
  CH3_A -   CH3_A [LENNARD_JONES] p_0/k_B:  98.00000 [K], p_1: 3.75000 [A], shift/k_B:  -0.36473844 [K], tailcorrection: no
  CH3_A -   CH2_A [LENNARD_JONES] p_0/k_B:  67.14164 [K], p_1: 3.85000 [A], shift/k_B:  -0.29258694 [K], tailcorrection: no
  CH3_A -     Fe4 [LENNARD_JONES] p_0/k_B:  25.31998 [K], p_1: 3.17215 [A], shift/k_B:  -0.03454697 [K], tailcorrection: no
  CH3_A -    Fe11 [LENNARD_JONES] p_0/k_B:  25.31998 [K], p_1: 3.17215 [A], shift/k_B:  -0.03454697 [K], tailcorrection: no
  CH3_A -    Fe18 [LENNARD_JONES] p_0/k_B:  25.31998 [K], p_1: 3.17215 [A], shift/k_B:  -0.03454697 [K], tailcorrection: no
  CH3_A -    Fe25 [LENNARD_JONES] p_0/k_B:  25.31998 [K], p_1: 3.17215 [A], shift/k_B:  -0.03454697 [K], tailcorrection: no
  CH3_A -     C51 [LENNARD_JONES] p_0/k_B:  71.95923 [K], p_1: 3.59042 [A], shift/k_B:  -0.20635856 [K], tailcorrection: no
  CH3_A -     N52 [LENNARD_JONES] p_0/k_B:  58.33328 [K], p_1: 3.50535 [A], shift/k_B:  -0.14487839 [K], tailcorrection: no
  CH3_A -     C49 [LENNARD_JONES] p_0/k_B:  71.95923 [K], p_1: 3.59042 [A], shift/k_B:  -0.20635856 [K], tailcorrection: no
  CH3_A -     N50 [LENNARD_JONES] p_0/k_B:  58.33328 [K], p_1: 3.50535 [A], shift/k_B:  -0.14487839 [K], tailcorrection: no
  CH3_A -     C47 [LENNARD_JONES] p_0/k_B:  71.95923 [K], p_1: 3.59042 [A], shift/k_B:  -0.20635856 [K], tailcorrection: no
  CH3_A -     N48 [LENNARD_JONES] p_0/k_B:  58.33328 [K], p_1: 3.50535 [A], shift/k_B:  -0.14487839 [K], tailcorrection: no
  CH3_A -     C45 [LENNARD_JONES] p_0/k_B:  71.95923 [K], p_1: 3.59042 [A], shift/k_B:  -0.20635856 [K], tailcorrection: no
  CH3_A -     N46 [LENNARD_JONES] p_0/k_B:  58.33328 [K], p_1: 3.50535 [A], shift/k_B:  -0.14487839 [K], tailcorrection: no
  CH3_A -     C43 [LENNARD_JONES] p_0/k_B:  71.95923 [K], p_1: 3.59042 [A], shift/k_B:  -0.20635856 [K], tailcorrection: no
  CH3_A -     N44 [LENNARD_JONES] p_0/k_B:  58.33328 [K], p_1: 3.50535 [A], shift/k_B:  -0.14487839 [K], tailcorrection: no
  CH3_A -     C41 [LENNARD_JONES] p_0/k_B:  71.95923 [K], p_1: 3.59042 [A], shift/k_B:  -0.20635856 [K], tailcorrection: no
  CH3_A -     N42 [LENNARD_JONES] p_0/k_B:  58.33328 [K], p_1: 3.50535 [A], shift/k_B:  -0.14487839 [K], tailcorrection: no
  CH3_A -     C39 [LENNARD_JONES] p_0/k_B:  71.95923 [K], p_1: 3.59042 [A], shift/k_B:  -0.20635856 [K], tailcorrection: no
  CH3_A -     N40 [LENNARD_JONES] p_0/k_B:  58.33328 [K], p_1: 3.50535 [A], shift/k_B:  -0.14487839 [K], tailcorrection: no
  CH3_A -     C37 [LENNARD_JONES] p_0/k_B:  71.95923 [K], p_1: 3.59042 [A], shift/k_B:  -0.20635856 [K], tailcorrection: no
  CH3_A -     N38 [LENNARD_JONES] p_0/k_B:  58.33328 [K], p_1: 3.50535 [A], shift/k_B:  -0.14487839 [K], tailcorrection: no
  CH3_A -     C35 [LENNARD_JONES] p_0/k_B:  71.95923 [K], p_1: 3.59042 [A], shift/k_B:  -0.20635856 [K], tailcorrection: no
  CH3_A -     N36 [LENNARD_JONES] p_0/k_B:  58.33328 [K], p_1: 3.50535 [A], shift/k_B:  -0.14487839 [K], tailcorrection: no
  CH3_A -     C33 [LENNARD_JONES] p_0/k_B:  71.95923 [K], p_1: 3.59042 [A], shift/k_B:  -0.20635856 [K], tailcorrection: no
  CH3_A -     N34 [LENNARD_JONES] p_0/k_B:  58.33328 [K], p_1: 3.50535 [A], shift/k_B:  -0.14487839 [K], tailcorrection: no
  CH3_A -     C31 [LENNARD_JONES] p_0/k_B:  71.95923 [K], p_1: 3.59042 [A], shift/k_B:  -0.20635856 [K], tailcorrection: no
  CH3_A -     N32 [LENNARD_JONES] p_0/k_B:  58.33328 [K], p_1: 3.50535 [A], shift/k_B:  -0.14487839 [K], tailcorrection: no
  CH3_A -     C29 [LENNARD_JONES] p_0/k_B:  71.95923 [K], p_1: 3.59042 [A], shift/k_B:  -0.20635856 [K], tailcorrection: no
  CH3_A -     N30 [LENNARD_JONES] p_0/k_B:  58.33328 [K], p_1: 3.50535 [A], shift/k_B:  -0.14487839 [K], tailcorrection: no
  CH2_A -   CH2_A [LENNARD_JONES] p_0/k_B:  46.00000 [K], p_1: 3.95000 [A], shift/k_B:  -0.23375458 [K], tailcorrection: no
  CH2_A -     Fe4 [LENNARD_JONES] p_0/k_B:  17.34719 [K], p_1: 3.27215 [A], shift/k_B:  -0.02851165 [K], tailcorrection: no
  CH2_A -    Fe11 [LENNARD_JONES] p_0/k_B:  17.34719 [K], p_1: 3.27215 [A], shift/k_B:  -0.02851165 [K], tailcorrection: no
  CH2_A -    Fe18 [LENNARD_JONES] p_0/k_B:  17.34719 [K], p_1: 3.27215 [A], shift/k_B:  -0.02851165 [K], tailcorrection: no
  CH2_A -    Fe25 [LENNARD_JONES] p_0/k_B:  17.34719 [K], p_1: 3.27215 [A], shift/k_B:  -0.02851165 [K], tailcorrection: no
  CH2_A -     C51 [LENNARD_JONES] p_0/k_B:  49.30062 [K], p_1: 3.69043 [A], shift/k_B:  -0.16669234 [K], tailcorrection: no
  CH2_A -     N52 [LENNARD_JONES] p_0/k_B:  39.96523 [K], p_1: 3.60534 [A], shift/k_B:  -0.11749414 [K], tailcorrection: no
  CH2_A -     C49 [LENNARD_JONES] p_0/k_B:  49.30062 [K], p_1: 3.69043 [A], shift/k_B:  -0.16669234 [K], tailcorrection: no
  CH2_A -     N50 [LENNARD_JONES] p_0/k_B:  39.96523 [K], p_1: 3.60534 [A], shift/k_B:  -0.11749414 [K], tailcorrection: no
  CH2_A -     C47 [LENNARD_JONES] p_0/k_B:  49.30062 [K], p_1: 3.69043 [A], shift/k_B:  -0.16669234 [K], tailcorrection: no
  CH2_A -     N48 [LENNARD_JONES] p_0/k_B:  39.96523 [K], p_1: 3.60534 [A], shift/k_B:  -0.11749414 [K], tailcorrection: no
  CH2_A -     C45 [LENNARD_JONES] p_0/k_B:  49.30062 [K], p_1: 3.69043 [A], shift/k_B:  -0.16669234 [K], tailcorrection: no
  CH2_A -     N46 [LENNARD_JONES] p_0/k_B:  39.96523 [K], p_1: 3.60534 [A], shift/k_B:  -0.11749414 [K], tailcorrection: no
  CH2_A -     C43 [LENNARD_JONES] p_0/k_B:  49.30062 [K], p_1: 3.69043 [A], shift/k_B:  -0.16669234 [K], tailcorrection: no
  CH2_A -     N44 [LENNARD_JONES] p_0/k_B:  39.96523 [K], p_1: 3.60534 [A], shift/k_B:  -0.11749414 [K], tailcorrection: no
  CH2_A -     C41 [LENNARD_JONES] p_0/k_B:  49.30062 [K], p_1: 3.69043 [A], shift/k_B:  -0.16669234 [K], tailcorrection: no
  CH2_A -     N42 [LENNARD_JONES] p_0/k_B:  39.96523 [K], p_1: 3.60534 [A], shift/k_B:  -0.11749414 [K], tailcorrection: no
  CH2_A -     C39 [LENNARD_JONES] p_0/k_B:  49.30062 [K], p_1: 3.69043 [A], shift/k_B:  -0.16669234 [K], tailcorrection: no
  CH2_A -     N40 [LENNARD_JONES] p_0/k_B:  39.96523 [K], p_1: 3.60534 [A], shift/k_B:  -0.11749414 [K], tailcorrection: no
  CH2_A -     C37 [LENNARD_JONES] p_0/k_B:  49.30062 [K], p_1: 3.69043 [A], shift/k_B:  -0.16669234 [K], tailcorrection: no
  CH2_A -     N38 [LENNARD_JONES] p_0/k_B:  39.96523 [K], p_1: 3.60534 [A], shift/k_B:  -0.11749414 [K], tailcorrection: no
  CH2_A -     C35 [LENNARD_JONES] p_0/k_B:  49.30062 [K], p_1: 3.69043 [A], shift/k_B:  -0.16669234 [K], tailcorrection: no
  CH2_A -     N36 [LENNARD_JONES] p_0/k_B:  39.96523 [K], p_1: 3.60534 [A], shift/k_B:  -0.11749414 [K], tailcorrection: no
  CH2_A -     C33 [LENNARD_JONES] p_0/k_B:  49.30062 [K], p_1: 3.69043 [A], shift/k_B:  -0.16669234 [K], tailcorrection: no
  CH2_A -     N34 [LENNARD_JONES] p_0/k_B:  39.96523 [K], p_1: 3.60534 [A], shift/k_B:  -0.11749414 [K], tailcorrection: no
  CH2_A -     C31 [LENNARD_JONES] p_0/k_B:  49.30062 [K], p_1: 3.69043 [A], shift/k_B:  -0.16669234 [K], tailcorrection: no
  CH2_A -     N32 [LENNARD_JONES] p_0/k_B:  39.96523 [K], p_1: 3.60534 [A], shift/k_B:  -0.11749414 [K], tailcorrection: no
  CH2_A -     C29 [LENNARD_JONES] p_0/k_B:  49.30062 [K], p_1: 3.69043 [A], shift/k_B:  -0.16669234 [K], tailcorrection: no
  CH2_A -     N30 [LENNARD_JONES] p_0/k_B:  39.96523 [K], p_1: 3.60534 [A], shift/k_B:  -0.11749414 [K], tailcorrection: no
    Fe4 -     Fe4 [LENNARD_JONES] p_0/k_B:   6.54185 [K], p_1: 2.59430 [A], shift/k_B:  -0.00267147 [K], tailcorrection: no
    Fe4 -    Fe11 [LENNARD_JONES] p_0/k_B:   6.54185 [K], p_1: 2.59430 [A], shift/k_B:  -0.00267147 [K], tailcorrection: no
    Fe4 -    Fe18 [LENNARD_JONES] p_0/k_B:   6.54185 [K], p_1: 2.59430 [A], shift/k_B:  -0.00267147 [K], tailcorrection: no
    Fe4 -    Fe25 [LENNARD_JONES] p_0/k_B:   6.54185 [K], p_1: 2.59430 [A], shift/k_B:  -0.00267147 [K], tailcorrection: no
    Fe4 -     C51 [LENNARD_JONES] p_0/k_B:  18.59190 [K], p_1: 3.01258 [A], shift/k_B:  -0.01861293 [K], tailcorrection: no
    Fe4 -     N52 [LENNARD_JONES] p_0/k_B:  15.07140 [K], p_1: 2.92749 [A], shift/k_B:  -0.01270608 [K], tailcorrection: no
    Fe4 -     C49 [LENNARD_JONES] p_0/k_B:  18.59190 [K], p_1: 3.01258 [A], shift/k_B:  -0.01861293 [K], tailcorrection: no
    Fe4 -     N50 [LENNARD_JONES] p_0/k_B:  15.07140 [K], p_1: 2.92749 [A], shift/k_B:  -0.01270608 [K], tailcorrection: no
    Fe4 -     C47 [LENNARD_JONES] p_0/k_B:  18.59190 [K], p_1: 3.01258 [A], shift/k_B:  -0.01861293 [K], tailcorrection: no
    Fe4 -     N48 [LENNARD_JONES] p_0/k_B:  15.07140 [K], p_1: 2.92749 [A], shift/k_B:  -0.01270608 [K], tailcorrection: no
    Fe4 -     C45 [LENNARD_JONES] p_0/k_B:  18.59190 [K], p_1: 3.01258 [A], shift/k_B:  -0.01861293 [K], tailcorrection: no
    Fe4 -     N46 [LENNARD_JONES] p_0/k_B:  15.07140 [K], p_1: 2.92749 [A], shift/k_B:  -0.01270608 [K], tailcorrection: no
    Fe4 -     C43 [LENNARD_JONES] p_0/k_B:  18.59190 [K], p_1: 3.01258 [A], shift/k_B:  -0.01861293 [K], tailcorrection: no
    Fe4 -     N44 [LENNARD_JONES] p_0/k_B:  15.07140 [K], p_1: 2.92749 [A], shift/k_B:  -0.01270608 [K], tailcorrection: no
    Fe4 -     C41 [LENNARD_JONES] p_0/k_B:  18.59190 [K], p_1: 3.01258 [A], shift/k_B:  -0.01861293 [K], tailcorrection: no
    Fe4 -     N42 [LENNARD_JONES] p_0/k_B:  15.07140 [K], p_1: 2.92749 [A], shift/k_B:  -0.01270608 [K], tailcorrection: no
    Fe4 -     C39 [LENNARD_JONES] p_0/k_B:  18.59190 [K], p_1: 3.01258 [A], shift/k_B:  -0.01861293 [K], tailcorrection: no
    Fe4 -     N40 [LENNARD_JONES] p_0/k_B:  15.07140 [K], p_1: 2.92749 [A], shift/k_B:  -0.01270608 [K], tailcorrection: no
    Fe4 -     C37 [LENNARD_JONES] p_0/k_B:  18.59190 [K], p_1: 3.01258 [A], shift/k_B:  -0.01861293 [K], tailcorrection: no
    Fe4 -     N38 [LENNARD_JONES] p_0/k_B:  15.07140 [K], p_1: 2.92749 [A], shift/k_B:  -0.01270608 [K], tailcorrection: no
    Fe4 -     C35 [LENNARD_JONES] p_0/k_B:  18.59190 [K], p_1: 3.01258 [A], shift/k_B:  -0.01861293 [K], tailcorrection: no
    Fe4 -     N36 [LENNARD_JONES] p_0/k_B:  15.07140 [K], p_1: 2.92749 [A], shift/k_B:  -0.01270608 [K], tailcorrection: no
    Fe4 -     C33 [LENNARD_JONES] p_0/k_B:  18.59190 [K], p_1: 3.01258 [A], shift/k_B:  -0.01861293 [K], tailcorrection: no
    Fe4 -     N34 [LENNARD_JONES] p_0/k_B:  15.07140 [K], p_1: 2.92749 [A], shift/k_B:  -0.01270608 [K], tailcorrection: no
    Fe4 -     C31 [LENNARD_JONES] p_0/k_B:  18.59190 [K], p_1: 3.01258 [A], shift/k_B:  -0.01861293 [K], tailcorrection: no
    Fe4 -     N32 [LENNARD_JONES] p_0/k_B:  15.07140 [K], p_1: 2.92749 [A], shift/k_B:  -0.01270608 [K], tailcorrection: no
    Fe4 -     C29 [LENNARD_JONES] p_0/k_B:  18.59190 [K], p_1: 3.01258 [A], shift/k_B:  -0.01861293 [K], tailcorrection: no
    Fe4 -     N30 [LENNARD_JONES] p_0/k_B:  15.07140 [K], p_1: 2.92749 [A], shift/k_B:  -0.01270608 [K], tailcorrection: no
   Fe11 -    Fe11 [LENNARD_JONES] p_0/k_B:   6.54185 [K], p_1: 2.59430 [A], shift/k_B:  -0.00267147 [K], tailcorrection: no
   Fe11 -    Fe18 [LENNARD_JONES] p_0/k_B:   6.54185 [K], p_1: 2.59430 [A], shift/k_B:  -0.00267147 [K], tailcorrection: no
   Fe11 -    Fe25 [LENNARD_JONES] p_0/k_B:   6.54185 [K], p_1: 2.59430 [A], shift/k_B:  -0.00267147 [K], tailcorrection: no
   Fe11 -     C51 [LENNARD_JONES] p_0/k_B:  18.59190 [K], p_1: 3.01258 [A], shift/k_B:  -0.01861293 [K], tailcorrection: no
   Fe11 -     N52 [LENNARD_JONES] p_0/k_B:  15.07140 [K], p_1: 2.92749 [A], shift/k_B:  -0.01270608 [K], tailcorrection: no
   Fe11 -     C49 [LENNARD_JONES] p_0/k_B:  18.59190 [K], p_1: 3.01258 [A], shift/k_B:  -0.01861293 [K], tailcorrection: no
   Fe11 -     N50 [LENNARD_JONES] p_0/k_B:  15.07140 [K], p_1: 2.92749 [A], shift/k_B:  -0.01270608 [K], tailcorrection: no
   Fe11 -     C47 [LENNARD_JONES] p_0/k_B:  18.59190 [K], p_1: 3.01258 [A], shift/k_B:  -0.01861293 [K], tailcorrection: no
   Fe11 -     N48 [LENNARD_JONES] p_0/k_B:  15.07140 [K], p_1: 2.92749 [A], shift/k_B:  -0.01270608 [K], tailcorrection: no
   Fe11 -     C45 [LENNARD_JONES] p_0/k_B:  18.59190 [K], p_1: 3.01258 [A], shift/k_B:  -0.01861293 [K], tailcorrection: no
   Fe11 -     N46 [LENNARD_JONES] p_0/k_B:  15.07140 [K], p_1: 2.92749 [A], shift/k_B:  -0.01270608 [K], tailcorrection: no
   Fe11 -     C43 [LENNARD_JONES] p_0/k_B:  18.59190 [K], p_1: 3.01258 [A], shift/k_B:  -0.01861293 [K], tailcorrection: no
   Fe11 -     N44 [LENNARD_JONES] p_0/k_B:  15.07140 [K], p_1: 2.92749 [A], shift/k_B:  -0.01270608 [K], tailcorrection: no
   Fe11 -     C41 [LENNARD_JONES] p_0/k_B:  18.59190 [K], p_1: 3.01258 [A], shift/k_B:  -0.01861293 [K], tailcorrection: no
   Fe11 -     N42 [LENNARD_JONES] p_0/k_B:  15.07140 [K], p_1: 2.92749 [A], shift/k_B:  -0.01270608 [K], tailcorrection: no
   Fe11 -     C39 [LENNARD_JONES] p_0/k_B:  18.59190 [K], p_1: 3.01258 [A], shift/k_B:  -0.01861293 [K], tailcorrection: no
   Fe11 -     N40 [LENNARD_JONES] p_0/k_B:  15.07140 [K], p_1: 2.92749 [A], shift/k_B:  -0.01270608 [K], tailcorrection: no
   Fe11 -     C37 [LENNARD_JONES] p_0/k_B:  18.59190 [K], p_1: 3.01258 [A], shift/k_B:  -0.01861293 [K], tailcorrection: no
   Fe11 -     N38 [LENNARD_JONES] p_0/k_B:  15.07140 [K], p_1: 2.92749 [A], shift/k_B:  -0.01270608 [K], tailcorrection: no
   Fe11 -     C35 [LENNARD_JONES] p_0/k_B:  18.59190 [K], p_1: 3.01258 [A], shift/k_B:  -0.01861293 [K], tailcorrection: no
   Fe11 -     N36 [LENNARD_JONES] p_0/k_B:  15.07140 [K], p_1: 2.92749 [A], shift/k_B:  -0.01270608 [K], tailcorrection: no
   Fe11 -     C33 [LENNARD_JONES] p_0/k_B:  18.59190 [K], p_1: 3.01258 [A], shift/k_B:  -0.01861293 [K], tailcorrection: no
   Fe11 -     N34 [LENNARD_JONES] p_0/k_B:  15.07140 [K], p_1: 2.92749 [A], shift/k_B:  -0.01270608 [K], tailcorrection: no
   Fe11 -     C31 [LENNARD_JONES] p_0/k_B:  18.59190 [K], p_1: 3.01258 [A], shift/k_B:  -0.01861293 [K], tailcorrection: no
   Fe11 -     N32 [LENNARD_JONES] p_0/k_B:  15.07140 [K], p_1: 2.92749 [A], shift/k_B:  -0.01270608 [K], tailcorrection: no
   Fe11 -     C29 [LENNARD_JONES] p_0/k_B:  18.59190 [K], p_1: 3.01258 [A], shift/k_B:  -0.01861293 [K], tailcorrection: no
   Fe11 -     N30 [LENNARD_JONES] p_0/k_B:  15.07140 [K], p_1: 2.92749 [A], shift/k_B:  -0.01270608 [K], tailcorrection: no
   Fe18 -    Fe18 [LENNARD_JONES] p_0/k_B:   6.54185 [K], p_1: 2.59430 [A], shift/k_B:  -0.00267147 [K], tailcorrection: no
   Fe18 -    Fe25 [LENNARD_JONES] p_0/k_B:   6.54185 [K], p_1: 2.59430 [A], shift/k_B:  -0.00267147 [K], tailcorrection: no
   Fe18 -     C51 [LENNARD_JONES] p_0/k_B:  18.59190 [K], p_1: 3.01258 [A], shift/k_B:  -0.01861293 [K], tailcorrection: no
   Fe18 -     N52 [LENNARD_JONES] p_0/k_B:  15.07140 [K], p_1: 2.92749 [A], shift/k_B:  -0.01270608 [K], tailcorrection: no
   Fe18 -     C49 [LENNARD_JONES] p_0/k_B:  18.59190 [K], p_1: 3.01258 [A], shift/k_B:  -0.01861293 [K], tailcorrection: no
   Fe18 -     N50 [LENNARD_JONES] p_0/k_B:  15.07140 [K], p_1: 2.92749 [A], shift/k_B:  -0.01270608 [K], tailcorrection: no
   Fe18 -     C47 [LENNARD_JONES] p_0/k_B:  18.59190 [K], p_1: 3.01258 [A], shift/k_B:  -0.01861293 [K], tailcorrection: no
   Fe18 -     N48 [LENNARD_JONES] p_0/k_B:  15.07140 [K], p_1: 2.92749 [A], shift/k_B:  -0.01270608 [K], tailcorrection: no
   Fe18 -     C45 [LENNARD_JONES] p_0/k_B:  18.59190 [K], p_1: 3.01258 [A], shift/k_B:  -0.01861293 [K], tailcorrection: no
   Fe18 -     N46 [LENNARD_JONES] p_0/k_B:  15.07140 [K], p_1: 2.92749 [A], shift/k_B:  -0.01270608 [K], tailcorrection: no
   Fe18 -     C43 [LENNARD_JONES] p_0/k_B:  18.59190 [K], p_1: 3.01258 [A], shift/k_B:  -0.01861293 [K], tailcorrection: no
   Fe18 -     N44 [LENNARD_JONES] p_0/k_B:  15.07140 [K], p_1: 2.92749 [A], shift/k_B:  -0.01270608 [K], tailcorrection: no
   Fe18 -     C41 [LENNARD_JONES] p_0/k_B:  18.59190 [K], p_1: 3.01258 [A], shift/k_B:  -0.01861293 [K], tailcorrection: no
   Fe18 -     N42 [LENNARD_JONES] p_0/k_B:  15.07140 [K], p_1: 2.92749 [A], shift/k_B:  -0.01270608 [K], tailcorrection: no
   Fe18 -     C39 [LENNARD_JONES] p_0/k_B:  18.59190 [K], p_1: 3.01258 [A], shift/k_B:  -0.01861293 [K], tailcorrection: no
   Fe18 -     N40 [LENNARD_JONES] p_0/k_B:  15.07140 [K], p_1: 2.92749 [A], shift/k_B:  -0.01270608 [K], tailcorrection: no
   Fe18 -     C37 [LENNARD_JONES] p_0/k_B:  18.59190 [K], p_1: 3.01258 [A], shift/k_B:  -0.01861293 [K], tailcorrection: no
   Fe18 -     N38 [LENNARD_JONES] p_0/k_B:  15.07140 [K], p_1: 2.92749 [A], shift/k_B:  -0.01270608 [K], tailcorrection: no
   Fe18 -     C35 [LENNARD_JONES] p_0/k_B:  18.59190 [K], p_1: 3.01258 [A], shift/k_B:  -0.01861293 [K], tailcorrection: no
   Fe18 -     N36 [LENNARD_JONES] p_0/k_B:  15.07140 [K], p_1: 2.92749 [A], shift/k_B:  -0.01270608 [K], tailcorrection: no
   Fe18 -     C33 [LENNARD_JONES] p_0/k_B:  18.59190 [K], p_1: 3.01258 [A], shift/k_B:  -0.01861293 [K], tailcorrection: no
   Fe18 -     N34 [LENNARD_JONES] p_0/k_B:  15.07140 [K], p_1: 2.92749 [A], shift/k_B:  -0.01270608 [K], tailcorrection: no
   Fe18 -     C31 [LENNARD_JONES] p_0/k_B:  18.59190 [K], p_1: 3.01258 [A], shift/k_B:  -0.01861293 [K], tailcorrection: no
   Fe18 -     N32 [LENNARD_JONES] p_0/k_B:  15.07140 [K], p_1: 2.92749 [A], shift/k_B:  -0.01270608 [K], tailcorrection: no
   Fe18 -     C29 [LENNARD_JONES] p_0/k_B:  18.59190 [K], p_1: 3.01258 [A], shift/k_B:  -0.01861293 [K], tailcorrection: no
   Fe18 -     N30 [LENNARD_JONES] p_0/k_B:  15.07140 [K], p_1: 2.92749 [A], shift/k_B:  -0.01270608 [K], tailcorrection: no
   Fe25 -    Fe25 [LENNARD_JONES] p_0/k_B:   6.54185 [K], p_1: 2.59430 [A], shift/k_B:  -0.00267147 [K], tailcorrection: no
   Fe25 -     C51 [LENNARD_JONES] p_0/k_B:  18.59190 [K], p_1: 3.01258 [A], shift/k_B:  -0.01861293 [K], tailcorrection: no
   Fe25 -     N52 [LENNARD_JONES] p_0/k_B:  15.07140 [K], p_1: 2.92749 [A], shift/k_B:  -0.01270608 [K], tailcorrection: no
   Fe25 -     C49 [LENNARD_JONES] p_0/k_B:  18.59190 [K], p_1: 3.01258 [A], shift/k_B:  -0.01861293 [K], tailcorrection: no
   Fe25 -     N50 [LENNARD_JONES] p_0/k_B:  15.07140 [K], p_1: 2.92749 [A], shift/k_B:  -0.01270608 [K], tailcorrection: no
   Fe25 -     C47 [LENNARD_JONES] p_0/k_B:  18.59190 [K], p_1: 3.01258 [A], shift/k_B:  -0.01861293 [K], tailcorrection: no
   Fe25 -     N48 [LENNARD_JONES] p_0/k_B:  15.07140 [K], p_1: 2.92749 [A], shift/k_B:  -0.01270608 [K], tailcorrection: no
   Fe25 -     C45 [LENNARD_JONES] p_0/k_B:  18.59190 [K], p_1: 3.01258 [A], shift/k_B:  -0.01861293 [K], tailcorrection: no
   Fe25 -     N46 [LENNARD_JONES] p_0/k_B:  15.07140 [K], p_1: 2.92749 [A], shift/k_B:  -0.01270608 [K], tailcorrection: no
   Fe25 -     C43 [LENNARD_JONES] p_0/k_B:  18.59190 [K], p_1: 3.01258 [A], shift/k_B:  -0.01861293 [K], tailcorrection: no
   Fe25 -     N44 [LENNARD_JONES] p_0/k_B:  15.07140 [K], p_1: 2.92749 [A], shift/k_B:  -0.01270608 [K], tailcorrection: no
   Fe25 -     C41 [LENNARD_JONES] p_0/k_B:  18.59190 [K], p_1: 3.01258 [A], shift/k_B:  -0.01861293 [K], tailcorrection: no
   Fe25 -     N42 [LENNARD_JONES] p_0/k_B:  15.07140 [K], p_1: 2.92749 [A], shift/k_B:  -0.01270608 [K], tailcorrection: no
   Fe25 -     C39 [LENNARD_JONES] p_0/k_B:  18.59190 [K], p_1: 3.01258 [A], shift/k_B:  -0.01861293 [K], tailcorrection: no
   Fe25 -     N40 [LENNARD_JONES] p_0/k_B:  15.07140 [K], p_1: 2.92749 [A], shift/k_B:  -0.01270608 [K], tailcorrection: no
   Fe25 -     C37 [LENNARD_JONES] p_0/k_B:  18.59190 [K], p_1: 3.01258 [A], shift/k_B:  -0.01861293 [K], tailcorrection: no
   Fe25 -     N38 [LENNARD_JONES] p_0/k_B:  15.07140 [K], p_1: 2.92749 [A], shift/k_B:  -0.01270608 [K], tailcorrection: no
   Fe25 -     C35 [LENNARD_JONES] p_0/k_B:  18.59190 [K], p_1: 3.01258 [A], shift/k_B:  -0.01861293 [K], tailcorrection: no
   Fe25 -     N36 [LENNARD_JONES] p_0/k_B:  15.07140 [K], p_1: 2.92749 [A], shift/k_B:  -0.01270608 [K], tailcorrection: no
   Fe25 -     C33 [LENNARD_JONES] p_0/k_B:  18.59190 [K], p_1: 3.01258 [A], shift/k_B:  -0.01861293 [K], tailcorrection: no
   Fe25 -     N34 [LENNARD_JONES] p_0/k_B:  15.07140 [K], p_1: 2.92749 [A], shift/k_B:  -0.01270608 [K], tailcorrection: no
   Fe25 -     C31 [LENNARD_JONES] p_0/k_B:  18.59190 [K], p_1: 3.01258 [A], shift/k_B:  -0.01861293 [K], tailcorrection: no
   Fe25 -     N32 [LENNARD_JONES] p_0/k_B:  15.07140 [K], p_1: 2.92749 [A], shift/k_B:  -0.01270608 [K], tailcorrection: no
   Fe25 -     C29 [LENNARD_JONES] p_0/k_B:  18.59190 [K], p_1: 3.01258 [A], shift/k_B:  -0.01861293 [K], tailcorrection: no
   Fe25 -     N30 [LENNARD_JONES] p_0/k_B:  15.07140 [K], p_1: 2.92749 [A], shift/k_B:  -0.01270608 [K], tailcorrection: no
    C51 -     C51 [LENNARD_JONES] p_0/k_B:  52.83807 [K], p_1: 3.43085 [A], shift/k_B:  -0.11536992 [K], tailcorrection: no
    C51 -     N52 [LENNARD_JONES] p_0/k_B:  42.83284 [K], p_1: 3.34577 [A], shift/k_B:  -0.08044921 [K], tailcorrection: no
    C51 -     C49 [LENNARD_JONES] p_0/k_B:  52.83807 [K], p_1: 3.43085 [A], shift/k_B:  -0.11536992 [K], tailcorrection: no
    C51 -     N50 [LENNARD_JONES] p_0/k_B:  42.83284 [K], p_1: 3.34577 [A], shift/k_B:  -0.08044921 [K], tailcorrection: no
    C51 -     C47 [LENNARD_JONES] p_0/k_B:  52.83807 [K], p_1: 3.43085 [A], shift/k_B:  -0.11536992 [K], tailcorrection: no
    C51 -     N48 [LENNARD_JONES] p_0/k_B:  42.83284 [K], p_1: 3.34577 [A], shift/k_B:  -0.08044921 [K], tailcorrection: no
    C51 -     C45 [LENNARD_JONES] p_0/k_B:  52.83807 [K], p_1: 3.43085 [A], shift/k_B:  -0.11536992 [K], tailcorrection: no
    C51 -     N46 [LENNARD_JONES] p_0/k_B:  42.83284 [K], p_1: 3.34577 [A], shift/k_B:  -0.08044921 [K], tailcorrection: no
    C51 -     C43 [LENNARD_JONES] p_0/k_B:  52.83807 [K], p_1: 3.43085 [A], shift/k_B:  -0.11536992 [K], tailcorrection: no
    C51 -     N44 [LENNARD_JONES] p_0/k_B:  42.83284 [K], p_1: 3.34577 [A], shift/k_B:  -0.08044921 [K], tailcorrection: no
    C51 -     C41 [LENNARD_JONES] p_0/k_B:  52.83807 [K], p_1: 3.43085 [A], shift/k_B:  -0.11536992 [K], tailcorrection: no
    C51 -     N42 [LENNARD_JONES] p_0/k_B:  42.83284 [K], p_1: 3.34577 [A], shift/k_B:  -0.08044921 [K], tailcorrection: no
    C51 -     C39 [LENNARD_JONES] p_0/k_B:  52.83807 [K], p_1: 3.43085 [A], shift/k_B:  -0.11536992 [K], tailcorrection: no
    C51 -     N40 [LENNARD_JONES] p_0/k_B:  42.83284 [K], p_1: 3.34577 [A], shift/k_B:  -0.08044921 [K], tailcorrection: no
    C51 -     C37 [LENNARD_JONES] p_0/k_B:  52.83807 [K], p_1: 3.43085 [A], shift/k_B:  -0.11536992 [K], tailcorrection: no
    C51 -     N38 [LENNARD_JONES] p_0/k_B:  42.83284 [K], p_1: 3.34577 [A], shift/k_B:  -0.08044921 [K], tailcorrection: no
    C51 -     C35 [LENNARD_JONES] p_0/k_B:  52.83807 [K], p_1: 3.43085 [A], shift/k_B:  -0.11536992 [K], tailcorrection: no
    C51 -     N36 [LENNARD_JONES] p_0/k_B:  42.83284 [K], p_1: 3.34577 [A], shift/k_B:  -0.08044921 [K], tailcorrection: no
    C51 -     C33 [LENNARD_JONES] p_0/k_B:  52.83807 [K], p_1: 3.43085 [A], shift/k_B:  -0.11536992 [K], tailcorrection: no
    C51 -     N34 [LENNARD_JONES] p_0/k_B:  42.83284 [K], p_1: 3.34577 [A], shift/k_B:  -0.08044921 [K], tailcorrection: no
    C51 -     C31 [LENNARD_JONES] p_0/k_B:  52.83807 [K], p_1: 3.43085 [A], shift/k_B:  -0.11536992 [K], tailcorrection: no
    C51 -     N32 [LENNARD_JONES] p_0/k_B:  42.83284 [K], p_1: 3.34577 [A], shift/k_B:  -0.08044921 [K], tailcorrection: no
    C51 -     C29 [LENNARD_JONES] p_0/k_B:  52.83807 [K], p_1: 3.43085 [A], shift/k_B:  -0.11536992 [K], tailcorrection: no
    C51 -     N30 [LENNARD_JONES] p_0/k_B:  42.83284 [K], p_1: 3.34577 [A], shift/k_B:  -0.08044921 [K], tailcorrection: no
    N52 -     N52 [LENNARD_JONES] p_0/k_B:  34.72216 [K], p_1: 3.26069 [A], shift/k_B:  -0.05588065 [K], tailcorrection: no
    N52 -     C49 [LENNARD_JONES] p_0/k_B:  42.83284 [K], p_1: 3.34577 [A], shift/k_B:  -0.08044921 [K], tailcorrection: no
    N52 -     N50 [LENNARD_JONES] p_0/k_B:  34.72216 [K], p_1: 3.26069 [A], shift/k_B:  -0.05588065 [K], tailcorrection: no
    N52 -     C47 [LENNARD_JONES] p_0/k_B:  42.83284 [K], p_1: 3.34577 [A], shift/k_B:  -0.08044921 [K], tailcorrection: no
    N52 -     N48 [LENNARD_JONES] p_0/k_B:  34.72216 [K], p_1: 3.26069 [A], shift/k_B:  -0.05588065 [K], tailcorrection: no
    N52 -     C45 [LENNARD_JONES] p_0/k_B:  42.83284 [K], p_1: 3.34577 [A], shift/k_B:  -0.08044921 [K], tailcorrection: no
    N52 -     N46 [LENNARD_JONES] p_0/k_B:  34.72216 [K], p_1: 3.26069 [A], shift/k_B:  -0.05588065 [K], tailcorrection: no
    N52 -     C43 [LENNARD_JONES] p_0/k_B:  42.83284 [K], p_1: 3.34577 [A], shift/k_B:  -0.08044921 [K], tailcorrection: no
    N52 -     N44 [LENNARD_JONES] p_0/k_B:  34.72216 [K], p_1: 3.26069 [A], shift/k_B:  -0.05588065 [K], tailcorrection: no
    N52 -     C41 [LENNARD_JONES] p_0/k_B:  42.83284 [K], p_1: 3.34577 [A], shift/k_B:  -0.08044921 [K], tailcorrection: no
    N52 -     N42 [LENNARD_JONES] p_0/k_B:  34.72216 [K], p_1: 3.26069 [A], shift/k_B:  -0.05588065 [K], tailcorrection: no
    N52 -     C39 [LENNARD_JONES] p_0/k_B:  42.83284 [K], p_1: 3.34577 [A], shift/k_B:  -0.08044921 [K], tailcorrection: no
    N52 -     N40 [LENNARD_JONES] p_0/k_B:  34.72216 [K], p_1: 3.26069 [A], shift/k_B:  -0.05588065 [K], tailcorrection: no
    N52 -     C37 [LENNARD_JONES] p_0/k_B:  42.83284 [K], p_1: 3.34577 [A], shift/k_B:  -0.08044921 [K], tailcorrection: no
    N52 -     N38 [LENNARD_JONES] p_0/k_B:  34.72216 [K], p_1: 3.26069 [A], shift/k_B:  -0.05588065 [K], tailcorrection: no
    N52 -     C35 [LENNARD_JONES] p_0/k_B:  42.83284 [K], p_1: 3.34577 [A], shift/k_B:  -0.08044921 [K], tailcorrection: no
    N52 -     N36 [LENNARD_JONES] p_0/k_B:  34.72216 [K], p_1: 3.26069 [A], shift/k_B:  -0.05588065 [K], tailcorrection: no
    N52 -     C33 [LENNARD_JONES] p_0/k_B:  42.83284 [K], p_1: 3.34577 [A], shift/k_B:  -0.08044921 [K], tailcorrection: no
    N52 -     N34 [LENNARD_JONES] p_0/k_B:  34.72216 [K], p_1: 3.26069 [A], shift/k_B:  -0.05588065 [K], tailcorrection: no
    N52 -     C31 [LENNARD_JONES] p_0/k_B:  42.83284 [K], p_1: 3.34577 [A], shift/k_B:  -0.08044921 [K], tailcorrection: no
    N52 -     N32 [LENNARD_JONES] p_0/k_B:  34.72216 [K], p_1: 3.26069 [A], shift/k_B:  -0.05588065 [K], tailcorrection: no
    N52 -     C29 [LENNARD_JONES] p_0/k_B:  42.83284 [K], p_1: 3.34577 [A], shift/k_B:  -0.08044921 [K], tailcorrection: no
    N52 -     N30 [LENNARD_JONES] p_0/k_B:  34.72216 [K], p_1: 3.26069 [A], shift/k_B:  -0.05588065 [K], tailcorrection: no
    C49 -     C49 [LENNARD_JONES] p_0/k_B:  52.83807 [K], p_1: 3.43085 [A], shift/k_B:  -0.11536992 [K], tailcorrection: no
    C49 -     N50 [LENNARD_JONES] p_0/k_B:  42.83284 [K], p_1: 3.34577 [A], shift/k_B:  -0.08044921 [K], tailcorrection: no
    C49 -     C47 [LENNARD_JONES] p_0/k_B:  52.83807 [K], p_1: 3.43085 [A], shift/k_B:  -0.11536992 [K], tailcorrection: no
    C49 -     N48 [LENNARD_JONES] p_0/k_B:  42.83284 [K], p_1: 3.34577 [A], shift/k_B:  -0.08044921 [K], tailcorrection: no
    C49 -     C45 [LENNARD_JONES] p_0/k_B:  52.83807 [K], p_1: 3.43085 [A], shift/k_B:  -0.11536992 [K], tailcorrection: no
    C49 -     N46 [LENNARD_JONES] p_0/k_B:  42.83284 [K], p_1: 3.34577 [A], shift/k_B:  -0.08044921 [K], tailcorrection: no
    C49 -     C43 [LENNARD_JONES] p_0/k_B:  52.83807 [K], p_1: 3.43085 [A], shift/k_B:  -0.11536992 [K], tailcorrection: no
    C49 -     N44 [LENNARD_JONES] p_0/k_B:  42.83284 [K], p_1: 3.34577 [A], shift/k_B:  -0.08044921 [K], tailcorrection: no
    C49 -     C41 [LENNARD_JONES] p_0/k_B:  52.83807 [K], p_1: 3.43085 [A], shift/k_B:  -0.11536992 [K], tailcorrection: no
    C49 -     N42 [LENNARD_JONES] p_0/k_B:  42.83284 [K], p_1: 3.34577 [A], shift/k_B:  -0.08044921 [K], tailcorrection: no
    C49 -     C39 [LENNARD_JONES] p_0/k_B:  52.83807 [K], p_1: 3.43085 [A], shift/k_B:  -0.11536992 [K], tailcorrection: no
    C49 -     N40 [LENNARD_JONES] p_0/k_B:  42.83284 [K], p_1: 3.34577 [A], shift/k_B:  -0.08044921 [K], tailcorrection: no
    C49 -     C37 [LENNARD_JONES] p_0/k_B:  52.83807 [K], p_1: 3.43085 [A], shift/k_B:  -0.11536992 [K], tailcorrection: no
    C49 -     N38 [LENNARD_JONES] p_0/k_B:  42.83284 [K], p_1: 3.34577 [A], shift/k_B:  -0.08044921 [K], tailcorrection: no
    C49 -     C35 [LENNARD_JONES] p_0/k_B:  52.83807 [K], p_1: 3.43085 [A], shift/k_B:  -0.11536992 [K], tailcorrection: no
    C49 -     N36 [LENNARD_JONES] p_0/k_B:  42.83284 [K], p_1: 3.34577 [A], shift/k_B:  -0.08044921 [K], tailcorrection: no
    C49 -     C33 [LENNARD_JONES] p_0/k_B:  52.83807 [K], p_1: 3.43085 [A], shift/k_B:  -0.11536992 [K], tailcorrection: no
    C49 -     N34 [LENNARD_JONES] p_0/k_B:  42.83284 [K], p_1: 3.34577 [A], shift/k_B:  -0.08044921 [K], tailcorrection: no
    C49 -     C31 [LENNARD_JONES] p_0/k_B:  52.83807 [K], p_1: 3.43085 [A], shift/k_B:  -0.11536992 [K], tailcorrection: no
    C49 -     N32 [LENNARD_JONES] p_0/k_B:  42.83284 [K], p_1: 3.34577 [A], shift/k_B:  -0.08044921 [K], tailcorrection: no
    C49 -     C29 [LENNARD_JONES] p_0/k_B:  52.83807 [K], p_1: 3.43085 [A], shift/k_B:  -0.11536992 [K], tailcorrection: no
    C49 -     N30 [LENNARD_JONES] p_0/k_B:  42.83284 [K], p_1: 3.34577 [A], shift/k_B:  -0.08044921 [K], tailcorrection: no
    N50 -     N50 [LENNARD_JONES] p_0/k_B:  34.72216 [K], p_1: 3.26069 [A], shift/k_B:  -0.05588065 [K], tailcorrection: no
    N50 -     C47 [LENNARD_JONES] p_0/k_B:  42.83284 [K], p_1: 3.34577 [A], shift/k_B:  -0.08044921 [K], tailcorrection: no
    N50 -     N48 [LENNARD_JONES] p_0/k_B:  34.72216 [K], p_1: 3.26069 [A], shift/k_B:  -0.05588065 [K], tailcorrection: no
    N50 -     C45 [LENNARD_JONES] p_0/k_B:  42.83284 [K], p_1: 3.34577 [A], shift/k_B:  -0.08044921 [K], tailcorrection: no
    N50 -     N46 [LENNARD_JONES] p_0/k_B:  34.72216 [K], p_1: 3.26069 [A], shift/k_B:  -0.05588065 [K], tailcorrection: no
    N50 -     C43 [LENNARD_JONES] p_0/k_B:  42.83284 [K], p_1: 3.34577 [A], shift/k_B:  -0.08044921 [K], tailcorrection: no
    N50 -     N44 [LENNARD_JONES] p_0/k_B:  34.72216 [K], p_1: 3.26069 [A], shift/k_B:  -0.05588065 [K], tailcorrection: no
    N50 -     C41 [LENNARD_JONES] p_0/k_B:  42.83284 [K], p_1: 3.34577 [A], shift/k_B:  -0.08044921 [K], tailcorrection: no
    N50 -     N42 [LENNARD_JONES] p_0/k_B:  34.72216 [K], p_1: 3.26069 [A], shift/k_B:  -0.05588065 [K], tailcorrection: no
    N50 -     C39 [LENNARD_JONES] p_0/k_B:  42.83284 [K], p_1: 3.34577 [A], shift/k_B:  -0.08044921 [K], tailcorrection: no
    N50 -     N40 [LENNARD_JONES] p_0/k_B:  34.72216 [K], p_1: 3.26069 [A], shift/k_B:  -0.05588065 [K], tailcorrection: no
    N50 -     C37 [LENNARD_JONES] p_0/k_B:  42.83284 [K], p_1: 3.34577 [A], shift/k_B:  -0.08044921 [K], tailcorrection: no
    N50 -     N38 [LENNARD_JONES] p_0/k_B:  34.72216 [K], p_1: 3.26069 [A], shift/k_B:  -0.05588065 [K], tailcorrection: no
    N50 -     C35 [LENNARD_JONES] p_0/k_B:  42.83284 [K], p_1: 3.34577 [A], shift/k_B:  -0.08044921 [K], tailcorrection: no
    N50 -     N36 [LENNARD_JONES] p_0/k_B:  34.72216 [K], p_1: 3.26069 [A], shift/k_B:  -0.05588065 [K], tailcorrection: no
    N50 -     C33 [LENNARD_JONES] p_0/k_B:  42.83284 [K], p_1: 3.34577 [A], shift/k_B:  -0.08044921 [K], tailcorrection: no
    N50 -     N34 [LENNARD_JONES] p_0/k_B:  34.72216 [K], p_1: 3.26069 [A], shift/k_B:  -0.05588065 [K], tailcorrection: no
    N50 -     C31 [LENNARD_JONES] p_0/k_B:  42.83284 [K], p_1: 3.34577 [A], shift/k_B:  -0.08044921 [K], tailcorrection: no
    N50 -     N32 [LENNARD_JONES] p_0/k_B:  34.72216 [K], p_1: 3.26069 [A], shift/k_B:  -0.05588065 [K], tailcorrection: no
    N50 -     C29 [LENNARD_JONES] p_0/k_B:  42.83284 [K], p_1: 3.34577 [A], shift/k_B:  -0.08044921 [K], tailcorrection: no
    N50 -     N30 [LENNARD_JONES] p_0/k_B:  34.72216 [K], p_1: 3.26069 [A], shift/k_B:  -0.05588065 [K], tailcorrection: no
    C47 -     C47 [LENNARD_JONES] p_0/k_B:  52.83807 [K], p_1: 3.43085 [A], shift/k_B:  -0.11536992 [K], tailcorrection: no
    C47 -     N48 [LENNARD_JONES] p_0/k_B:  42.83284 [K], p_1: 3.34577 [A], shift/k_B:  -0.08044921 [K], tailcorrection: no
    C47 -     C45 [LENNARD_JONES] p_0/k_B:  52.83807 [K], p_1: 3.43085 [A], shift/k_B:  -0.11536992 [K], tailcorrection: no
    C47 -     N46 [LENNARD_JONES] p_0/k_B:  42.83284 [K], p_1: 3.34577 [A], shift/k_B:  -0.08044921 [K], tailcorrection: no
    C47 -     C43 [LENNARD_JONES] p_0/k_B:  52.83807 [K], p_1: 3.43085 [A], shift/k_B:  -0.11536992 [K], tailcorrection: no
    C47 -     N44 [LENNARD_JONES] p_0/k_B:  42.83284 [K], p_1: 3.34577 [A], shift/k_B:  -0.08044921 [K], tailcorrection: no
    C47 -     C41 [LENNARD_JONES] p_0/k_B:  52.83807 [K], p_1: 3.43085 [A], shift/k_B:  -0.11536992 [K], tailcorrection: no
    C47 -     N42 [LENNARD_JONES] p_0/k_B:  42.83284 [K], p_1: 3.34577 [A], shift/k_B:  -0.08044921 [K], tailcorrection: no
    C47 -     C39 [LENNARD_JONES] p_0/k_B:  52.83807 [K], p_1: 3.43085 [A], shift/k_B:  -0.11536992 [K], tailcorrection: no
    C47 -     N40 [LENNARD_JONES] p_0/k_B:  42.83284 [K], p_1: 3.34577 [A], shift/k_B:  -0.08044921 [K], tailcorrection: no
    C47 -     C37 [LENNARD_JONES] p_0/k_B:  52.83807 [K], p_1: 3.43085 [A], shift/k_B:  -0.11536992 [K], tailcorrection: no
    C47 -     N38 [LENNARD_JONES] p_0/k_B:  42.83284 [K], p_1: 3.34577 [A], shift/k_B:  -0.08044921 [K], tailcorrection: no
    C47 -     C35 [LENNARD_JONES] p_0/k_B:  52.83807 [K], p_1: 3.43085 [A], shift/k_B:  -0.11536992 [K], tailcorrection: no
    C47 -     N36 [LENNARD_JONES] p_0/k_B:  42.83284 [K], p_1: 3.34577 [A], shift/k_B:  -0.08044921 [K], tailcorrection: no
    C47 -     C33 [LENNARD_JONES] p_0/k_B:  52.83807 [K], p_1: 3.43085 [A], shift/k_B:  -0.11536992 [K], tailcorrection: no
    C47 -     N34 [LENNARD_JONES] p_0/k_B:  42.83284 [K], p_1: 3.34577 [A], shift/k_B:  -0.08044921 [K], tailcorrection: no
    C47 -     C31 [LENNARD_JONES] p_0/k_B:  52.83807 [K], p_1: 3.43085 [A], shift/k_B:  -0.11536992 [K], tailcorrection: no
    C47 -     N32 [LENNARD_JONES] p_0/k_B:  42.83284 [K], p_1: 3.34577 [A], shift/k_B:  -0.08044921 [K], tailcorrection: no
    C47 -     C29 [LENNARD_JONES] p_0/k_B:  52.83807 [K], p_1: 3.43085 [A], shift/k_B:  -0.11536992 [K], tailcorrection: no
    C47 -     N30 [LENNARD_JONES] p_0/k_B:  42.83284 [K], p_1: 3.34577 [A], shift/k_B:  -0.08044921 [K], tailcorrection: no
    N48 -     N48 [LENNARD_JONES] p_0/k_B:  34.72216 [K], p_1: 3.26069 [A], shift/k_B:  -0.05588065 [K], tailcorrection: no
    N48 -     C45 [LENNARD_JONES] p_0/k_B:  42.83284 [K], p_1: 3.34577 [A], shift/k_B:  -0.08044921 [K], tailcorrection: no
    N48 -     N46 [LENNARD_JONES] p_0/k_B:  34.72216 [K], p_1: 3.26069 [A], shift/k_B:  -0.05588065 [K], tailcorrection: no
    N48 -     C43 [LENNARD_JONES] p_0/k_B:  42.83284 [K], p_1: 3.34577 [A], shift/k_B:  -0.08044921 [K], tailcorrection: no
    N48 -     N44 [LENNARD_JONES] p_0/k_B:  34.72216 [K], p_1: 3.26069 [A], shift/k_B:  -0.05588065 [K], tailcorrection: no
    N48 -     C41 [LENNARD_JONES] p_0/k_B:  42.83284 [K], p_1: 3.34577 [A], shift/k_B:  -0.08044921 [K], tailcorrection: no
    N48 -     N42 [LENNARD_JONES] p_0/k_B:  34.72216 [K], p_1: 3.26069 [A], shift/k_B:  -0.05588065 [K], tailcorrection: no
    N48 -     C39 [LENNARD_JONES] p_0/k_B:  42.83284 [K], p_1: 3.34577 [A], shift/k_B:  -0.08044921 [K], tailcorrection: no
    N48 -     N40 [LENNARD_JONES] p_0/k_B:  34.72216 [K], p_1: 3.26069 [A], shift/k_B:  -0.05588065 [K], tailcorrection: no
    N48 -     C37 [LENNARD_JONES] p_0/k_B:  42.83284 [K], p_1: 3.34577 [A], shift/k_B:  -0.08044921 [K], tailcorrection: no
    N48 -     N38 [LENNARD_JONES] p_0/k_B:  34.72216 [K], p_1: 3.26069 [A], shift/k_B:  -0.05588065 [K], tailcorrection: no
    N48 -     C35 [LENNARD_JONES] p_0/k_B:  42.83284 [K], p_1: 3.34577 [A], shift/k_B:  -0.08044921 [K], tailcorrection: no
    N48 -     N36 [LENNARD_JONES] p_0/k_B:  34.72216 [K], p_1: 3.26069 [A], shift/k_B:  -0.05588065 [K], tailcorrection: no
    N48 -     C33 [LENNARD_JONES] p_0/k_B:  42.83284 [K], p_1: 3.34577 [A], shift/k_B:  -0.08044921 [K], tailcorrection: no
    N48 -     N34 [LENNARD_JONES] p_0/k_B:  34.72216 [K], p_1: 3.26069 [A], shift/k_B:  -0.05588065 [K], tailcorrection: no
    N48 -     C31 [LENNARD_JONES] p_0/k_B:  42.83284 [K], p_1: 3.34577 [A], shift/k_B:  -0.08044921 [K], tailcorrection: no
    N48 -     N32 [LENNARD_JONES] p_0/k_B:  34.72216 [K], p_1: 3.26069 [A], shift/k_B:  -0.05588065 [K], tailcorrection: no
    N48 -     C29 [LENNARD_JONES] p_0/k_B:  42.83284 [K], p_1: 3.34577 [A], shift/k_B:  -0.08044921 [K], tailcorrection: no
    N48 -     N30 [LENNARD_JONES] p_0/k_B:  34.72216 [K], p_1: 3.26069 [A], shift/k_B:  -0.05588065 [K], tailcorrection: no
    C45 -     C45 [LENNARD_JONES] p_0/k_B:  52.83807 [K], p_1: 3.43085 [A], shift/k_B:  -0.11536992 [K], tailcorrection: no
    C45 -     N46 [LENNARD_JONES] p_0/k_B:  42.83284 [K], p_1: 3.34577 [A], shift/k_B:  -0.08044921 [K], tailcorrection: no
    C45 -     C43 [LENNARD_JONES] p_0/k_B:  52.83807 [K], p_1: 3.43085 [A], shift/k_B:  -0.11536992 [K], tailcorrection: no
    C45 -     N44 [LENNARD_JONES] p_0/k_B:  42.83284 [K], p_1: 3.34577 [A], shift/k_B:  -0.08044921 [K], tailcorrection: no
    C45 -     C41 [LENNARD_JONES] p_0/k_B:  52.83807 [K], p_1: 3.43085 [A], shift/k_B:  -0.11536992 [K], tailcorrection: no
    C45 -     N42 [LENNARD_JONES] p_0/k_B:  42.83284 [K], p_1: 3.34577 [A], shift/k_B:  -0.08044921 [K], tailcorrection: no
    C45 -     C39 [LENNARD_JONES] p_0/k_B:  52.83807 [K], p_1: 3.43085 [A], shift/k_B:  -0.11536992 [K], tailcorrection: no
    C45 -     N40 [LENNARD_JONES] p_0/k_B:  42.83284 [K], p_1: 3.34577 [A], shift/k_B:  -0.08044921 [K], tailcorrection: no
    C45 -     C37 [LENNARD_JONES] p_0/k_B:  52.83807 [K], p_1: 3.43085 [A], shift/k_B:  -0.11536992 [K], tailcorrection: no
    C45 -     N38 [LENNARD_JONES] p_0/k_B:  42.83284 [K], p_1: 3.34577 [A], shift/k_B:  -0.08044921 [K], tailcorrection: no
    C45 -     C35 [LENNARD_JONES] p_0/k_B:  52.83807 [K], p_1: 3.43085 [A], shift/k_B:  -0.11536992 [K], tailcorrection: no
    C45 -     N36 [LENNARD_JONES] p_0/k_B:  42.83284 [K], p_1: 3.34577 [A], shift/k_B:  -0.08044921 [K], tailcorrection: no
    C45 -     C33 [LENNARD_JONES] p_0/k_B:  52.83807 [K], p_1: 3.43085 [A], shift/k_B:  -0.11536992 [K], tailcorrection: no
    C45 -     N34 [LENNARD_JONES] p_0/k_B:  42.83284 [K], p_1: 3.34577 [A], shift/k_B:  -0.08044921 [K], tailcorrection: no
    C45 -     C31 [LENNARD_JONES] p_0/k_B:  52.83807 [K], p_1: 3.43085 [A], shift/k_B:  -0.11536992 [K], tailcorrection: no
    C45 -     N32 [LENNARD_JONES] p_0/k_B:  42.83284 [K], p_1: 3.34577 [A], shift/k_B:  -0.08044921 [K], tailcorrection: no
    C45 -     C29 [LENNARD_JONES] p_0/k_B:  52.83807 [K], p_1: 3.43085 [A], shift/k_B:  -0.11536992 [K], tailcorrection: no
    C45 -     N30 [LENNARD_JONES] p_0/k_B:  42.83284 [K], p_1: 3.34577 [A], shift/k_B:  -0.08044921 [K], tailcorrection: no
    N46 -     N46 [LENNARD_JONES] p_0/k_B:  34.72216 [K], p_1: 3.26069 [A], shift/k_B:  -0.05588065 [K], tailcorrection: no
    N46 -     C43 [LENNARD_JONES] p_0/k_B:  42.83284 [K], p_1: 3.34577 [A], shift/k_B:  -0.08044921 [K], tailcorrection: no
    N46 -     N44 [LENNARD_JONES] p_0/k_B:  34.72216 [K], p_1: 3.26069 [A], shift/k_B:  -0.05588065 [K], tailcorrection: no
    N46 -     C41 [LENNARD_JONES] p_0/k_B:  42.83284 [K], p_1: 3.34577 [A], shift/k_B:  -0.08044921 [K], tailcorrection: no
    N46 -     N42 [LENNARD_JONES] p_0/k_B:  34.72216 [K], p_1: 3.26069 [A], shift/k_B:  -0.05588065 [K], tailcorrection: no
    N46 -     C39 [LENNARD_JONES] p_0/k_B:  42.83284 [K], p_1: 3.34577 [A], shift/k_B:  -0.08044921 [K], tailcorrection: no
    N46 -     N40 [LENNARD_JONES] p_0/k_B:  34.72216 [K], p_1: 3.26069 [A], shift/k_B:  -0.05588065 [K], tailcorrection: no
    N46 -     C37 [LENNARD_JONES] p_0/k_B:  42.83284 [K], p_1: 3.34577 [A], shift/k_B:  -0.08044921 [K], tailcorrection: no
    N46 -     N38 [LENNARD_JONES] p_0/k_B:  34.72216 [K], p_1: 3.26069 [A], shift/k_B:  -0.05588065 [K], tailcorrection: no
    N46 -     C35 [LENNARD_JONES] p_0/k_B:  42.83284 [K], p_1: 3.34577 [A], shift/k_B:  -0.08044921 [K], tailcorrection: no
    N46 -     N36 [LENNARD_JONES] p_0/k_B:  34.72216 [K], p_1: 3.26069 [A], shift/k_B:  -0.05588065 [K], tailcorrection: no
    N46 -     C33 [LENNARD_JONES] p_0/k_B:  42.83284 [K], p_1: 3.34577 [A], shift/k_B:  -0.08044921 [K], tailcorrection: no
    N46 -     N34 [LENNARD_JONES] p_0/k_B:  34.72216 [K], p_1: 3.26069 [A], shift/k_B:  -0.05588065 [K], tailcorrection: no
    N46 -     C31 [LENNARD_JONES] p_0/k_B:  42.83284 [K], p_1: 3.34577 [A], shift/k_B:  -0.08044921 [K], tailcorrection: no
    N46 -     N32 [LENNARD_JONES] p_0/k_B:  34.72216 [K], p_1: 3.26069 [A], shift/k_B:  -0.05588065 [K], tailcorrection: no
    N46 -     C29 [LENNARD_JONES] p_0/k_B:  42.83284 [K], p_1: 3.34577 [A], shift/k_B:  -0.08044921 [K], tailcorrection: no
    N46 -     N30 [LENNARD_JONES] p_0/k_B:  34.72216 [K], p_1: 3.26069 [A], shift/k_B:  -0.05588065 [K], tailcorrection: no
    C43 -     C43 [LENNARD_JONES] p_0/k_B:  52.83807 [K], p_1: 3.43085 [A], shift/k_B:  -0.11536992 [K], tailcorrection: no
    C43 -     N44 [LENNARD_JONES] p_0/k_B:  42.83284 [K], p_1: 3.34577 [A], shift/k_B:  -0.08044921 [K], tailcorrection: no
    C43 -     C41 [LENNARD_JONES] p_0/k_B:  52.83807 [K], p_1: 3.43085 [A], shift/k_B:  -0.11536992 [K], tailcorrection: no
    C43 -     N42 [LENNARD_JONES] p_0/k_B:  42.83284 [K], p_1: 3.34577 [A], shift/k_B:  -0.08044921 [K], tailcorrection: no
    C43 -     C39 [LENNARD_JONES] p_0/k_B:  52.83807 [K], p_1: 3.43085 [A], shift/k_B:  -0.11536992 [K], tailcorrection: no
    C43 -     N40 [LENNARD_JONES] p_0/k_B:  42.83284 [K], p_1: 3.34577 [A], shift/k_B:  -0.08044921 [K], tailcorrection: no
    C43 -     C37 [LENNARD_JONES] p_0/k_B:  52.83807 [K], p_1: 3.43085 [A], shift/k_B:  -0.11536992 [K], tailcorrection: no
    C43 -     N38 [LENNARD_JONES] p_0/k_B:  42.83284 [K], p_1: 3.34577 [A], shift/k_B:  -0.08044921 [K], tailcorrection: no
    C43 -     C35 [LENNARD_JONES] p_0/k_B:  52.83807 [K], p_1: 3.43085 [A], shift/k_B:  -0.11536992 [K], tailcorrection: no
    C43 -     N36 [LENNARD_JONES] p_0/k_B:  42.83284 [K], p_1: 3.34577 [A], shift/k_B:  -0.08044921 [K], tailcorrection: no
    C43 -     C33 [LENNARD_JONES] p_0/k_B:  52.83807 [K], p_1: 3.43085 [A], shift/k_B:  -0.11536992 [K], tailcorrection: no
    C43 -     N34 [LENNARD_JONES] p_0/k_B:  42.83284 [K], p_1: 3.34577 [A], shift/k_B:  -0.08044921 [K], tailcorrection: no
    C43 -     C31 [LENNARD_JONES] p_0/k_B:  52.83807 [K], p_1: 3.43085 [A], shift/k_B:  -0.11536992 [K], tailcorrection: no
    C43 -     N32 [LENNARD_JONES] p_0/k_B:  42.83284 [K], p_1: 3.34577 [A], shift/k_B:  -0.08044921 [K], tailcorrection: no
    C43 -     C29 [LENNARD_JONES] p_0/k_B:  52.83807 [K], p_1: 3.43085 [A], shift/k_B:  -0.11536992 [K], tailcorrection: no
    C43 -     N30 [LENNARD_JONES] p_0/k_B:  42.83284 [K], p_1: 3.34577 [A], shift/k_B:  -0.08044921 [K], tailcorrection: no
    N44 -     N44 [LENNARD_JONES] p_0/k_B:  34.72216 [K], p_1: 3.26069 [A], shift/k_B:  -0.05588065 [K], tailcorrection: no
    N44 -     C41 [LENNARD_JONES] p_0/k_B:  42.83284 [K], p_1: 3.34577 [A], shift/k_B:  -0.08044921 [K], tailcorrection: no
    N44 -     N42 [LENNARD_JONES] p_0/k_B:  34.72216 [K], p_1: 3.26069 [A], shift/k_B:  -0.05588065 [K], tailcorrection: no
    N44 -     C39 [LENNARD_JONES] p_0/k_B:  42.83284 [K], p_1: 3.34577 [A], shift/k_B:  -0.08044921 [K], tailcorrection: no
    N44 -     N40 [LENNARD_JONES] p_0/k_B:  34.72216 [K], p_1: 3.26069 [A], shift/k_B:  -0.05588065 [K], tailcorrection: no
    N44 -     C37 [LENNARD_JONES] p_0/k_B:  42.83284 [K], p_1: 3.34577 [A], shift/k_B:  -0.08044921 [K], tailcorrection: no
    N44 -     N38 [LENNARD_JONES] p_0/k_B:  34.72216 [K], p_1: 3.26069 [A], shift/k_B:  -0.05588065 [K], tailcorrection: no
[...]
	Block[ 3]            0.00000 [K]
	Block[ 4]            0.00000 [K]
	------------------------------------------------------------------------------
	Average              0.00000 [K] +/-            0.00000 [K]

Average Cation Bend angle inversion energy:
===========================================
	Block[ 0]            0.00000 [K]
	Block[ 1]            0.00000 [K]
	Block[ 2]            0.00000 [K]
	Block[ 3]            0.00000 [K]
	Block[ 4]            0.00000 [K]
	------------------------------------------------------------------------------
	Average              0.00000 [K] +/-            0.00000 [K]

Average Cation Torsion energy:
==============================
	Block[ 0]            0.00000 [K]
	Block[ 1]            0.00000 [K]
	Block[ 2]            0.00000 [K]
	Block[ 3]            0.00000 [K]
	Block[ 4]            0.00000 [K]
	------------------------------------------------------------------------------
	Average              0.00000 [K] +/-            0.00000 [K]

Average Cation Improper Torsion energy:
=======================================
	Block[ 0]            0.00000 [K]
	Block[ 1]            0.00000 [K]
	Block[ 2]            0.00000 [K]
	Block[ 3]            0.00000 [K]
	Block[ 4]            0.00000 [K]
	------------------------------------------------------------------------------
	Average              0.00000 [K] +/-            0.00000 [K]

Average Cation Bond-Bond cross term energy:
=================================================
	Block[ 0]            0.00000 [K]
	Block[ 1]            0.00000 [K]
	Block[ 2]            0.00000 [K]
	Block[ 3]            0.00000 [K]
	Block[ 4]            0.00000 [K]
	------------------------------------------------------------------------------
	Average              0.00000 [K] +/-            0.00000 [K]

Average Cation Bend-Bend cross term energy:
===========================================
	Block[ 0]            0.00000 [K]
	Block[ 1]            0.00000 [K]
	Block[ 2]            0.00000 [K]
	Block[ 3]            0.00000 [K]
	Block[ 4]            0.00000 [K]
	------------------------------------------------------------------------------
	Average              0.00000 [K] +/-            0.00000 [K]

Average Cation Bond-Bend cross term energy:
==============================================
	Block[ 0]            0.00000 [K]
	Block[ 1]            0.00000 [K]
	Block[ 2]            0.00000 [K]
	Block[ 3]            0.00000 [K]
	Block[ 4]            0.00000 [K]
	------------------------------------------------------------------------------
	Average              0.00000 [K] +/-            0.00000 [K]

Average Cation Bond-Torsion cross term energy:
==============================================
	Block[ 0]            0.00000 [K]
	Block[ 1]            0.00000 [K]
	Block[ 2]            0.00000 [K]
	Block[ 3]            0.00000 [K]
	Block[ 4]            0.00000 [K]
	------------------------------------------------------------------------------
	Average              0.00000 [K] +/-            0.00000 [K]

Average Cation Bend-Torsion cross term energy:
==============================================
	Block[ 0]            0.00000 [K]
	Block[ 1]            0.00000 [K]
	Block[ 2]            0.00000 [K]
	Block[ 3]            0.00000 [K]
	Block[ 4]            0.00000 [K]
	------------------------------------------------------------------------------
	Average              0.00000 [K] +/-            0.00000 [K]

Average Cation Intra Van der Waals energy:
==========================================
	Block[ 0]            0.00000 [K]
	Block[ 1]            0.00000 [K]
	Block[ 2]            0.00000 [K]
	Block[ 3]            0.00000 [K]
	Block[ 4]            0.00000 [K]
	------------------------------------------------------------------------------
	Average              0.00000 [K] +/-            0.00000 [K]

Average Cation Intra charge-charge Coulomb energy:
====================================
	Block[ 0]            0.00000 [K]
	Block[ 1]            0.00000 [K]
	Block[ 2]            0.00000 [K]
	Block[ 3]            0.00000 [K]
	Block[ 4]            0.00000 [K]
	------------------------------------------------------------------------------
	Average              0.00000 [K] +/-            0.00000 [K]

Average Cation Intra charge-bonddipole Coulomb energy:
====================================
	Block[ 0]            0.00000 [K]
	Block[ 1]            0.00000 [K]
	Block[ 2]            0.00000 [K]
	Block[ 3]            0.00000 [K]
	Block[ 4]            0.00000 [K]
	------------------------------------------------------------------------------
	Average              0.00000 [K] +/-            0.00000 [K]

Average Cation Intra bonddipole-bonddipole Coulomb energy:
====================================
	Block[ 0]            0.00000 [K]
	Block[ 1]            0.00000 [K]
	Block[ 2]            0.00000 [K]
	Block[ 3]            0.00000 [K]
	Block[ 4]            0.00000 [K]
	------------------------------------------------------------------------------
	Average              0.00000 [K] +/-            0.00000 [K]

Average Host-Host energy:
=========================
	Block[ 0] 0.00000            Van der Waals: 0.00000            Coulomb: 0.00000            [K]
	Block[ 1] 0.00000            Van der Waals: 0.00000            Coulomb: 0.00000            [K]
	Block[ 2] 0.00000            Van der Waals: 0.00000            Coulomb: 0.00000            [K]
	Block[ 3] 0.00000            Van der Waals: 0.00000            Coulomb: 0.00000            [K]
	Block[ 4] 0.00000            Van der Waals: 0.00000            Coulomb: 0.00000            [K]
	------------------------------------------------------------------------------
	Average   0.00000            Van der Waals: 0.000000           Coulomb: 0.00000            [K]
	      +/- 0.00000                       +/- 0.000000                +/- 0.00000            [K]

Average Adsorbate-Adsorbate energy:
===================================
	Block[ 0] -1408.93169        Van der Waals: -1408.93169        Coulomb: 0.00000            [K]
	Block[ 1] -1357.88999        Van der Waals: -1357.88999        Coulomb: 0.00000            [K]
	Block[ 2] -1316.40362        Van der Waals: -1316.40362        Coulomb: 0.00000            [K]
	Block[ 3] -1392.05267        Van der Waals: -1392.05267        Coulomb: 0.00000            [K]
	Block[ 4] -1397.90649        Van der Waals: -1397.90649        Coulomb: 0.00000            [K]
	------------------------------------------------------------------------------
	Average   -1374.63689        Van der Waals: -1374.636892       Coulomb: 0.00000            [K]
	      +/- 46.83339                      +/- 46.833388               +/- 0.00000            [K]

Average Cation-Cation energy:
=============================
	Block[ 0] 0.00000            Van der Waals: 0.00000            Coulomb: 0.00000            [K]
	Block[ 1] 0.00000            Van der Waals: 0.00000            Coulomb: 0.00000            [K]
	Block[ 2] 0.00000            Van der Waals: 0.00000            Coulomb: 0.00000            [K]
	Block[ 3] 0.00000            Van der Waals: 0.00000            Coulomb: 0.00000            [K]
	Block[ 4] 0.00000            Van der Waals: 0.00000            Coulomb: 0.00000            [K]
	------------------------------------------------------------------------------
	Average   0.00000            Van der Waals: 0.000000           Coulomb: 0.00000            [K]
	      +/- 0.00000                       +/- 0.000000                +/- 0.00000            [K]

Average Host-Adsorbate energy:
==============================
	Block[ 0] -41434.83786       Van der Waals: -41434.83786       Coulomb: 0.00000            [K]
	Block[ 1] -40754.07233       Van der Waals: -40754.07233       Coulomb: 0.00000            [K]
	Block[ 2] -40540.65796       Van der Waals: -40540.65796       Coulomb: 0.00000            [K]
	Block[ 3] -41735.99205       Van der Waals: -41735.99205       Coulomb: 0.00000            [K]
	Block[ 4] -41593.04724       Van der Waals: -41593.04724       Coulomb: 0.00000            [K]
	------------------------------------------------------------------------------
	Average   -41211.72149       Van der Waals: -41211.721487      Coulomb: 0.00000            [K]
	      +/- 659.79478                     +/- 659.794783              +/- 0.00000            [K]

Average Host-Cation energy:
===========================
	Block[ 0] 0.00000            Van der Waals: 0.00000            Coulomb: 0.00000            [K]
	Block[ 1] 0.00000            Van der Waals: 0.00000            Coulomb: 0.00000            [K]
	Block[ 2] 0.00000            Van der Waals: 0.00000            Coulomb: 0.00000            [K]
	Block[ 3] 0.00000            Van der Waals: 0.00000            Coulomb: 0.00000            [K]
	Block[ 4] 0.00000            Van der Waals: 0.00000            Coulomb: 0.00000            [K]
	------------------------------------------------------------------------------
	Average   0.00000            Van der Waals: 0.000000           Coulomb: 0.00000            [K]
	      +/- 0.00000                       +/- 0.000000                +/- 0.00000            [K]

Average Adsorbate-Cation energy:
================================
	Block[ 0] 0.00000            Van der Waals: 0.00000            Coulomb: 0.00000            [K]
	Block[ 1] 0.00000            Van der Waals: 0.00000            Coulomb: 0.00000            [K]
	Block[ 2] 0.00000            Van der Waals: 0.00000            Coulomb: 0.00000            [K]
	Block[ 3] 0.00000            Van der Waals: 0.00000            Coulomb: 0.00000            [K]
	Block[ 4] 0.00000            Van der Waals: 0.00000            Coulomb: 0.00000            [K]
	------------------------------------------------------------------------------
	Average   0.00000            Van der Waals: 0.000000           Coulomb: 0.00000            [K]
	      +/- 0.00000                       +/- 0.000000                +/- 0.00000            [K]

Host polarization energy:
=======================
	Block[ 0]            0.00000 [K]
	Block[ 1]            0.00000 [K]
	Block[ 2]            0.00000 [K]
	Block[ 3]            0.00000 [K]
	Block[ 4]            0.00000 [K]
	------------------------------------------------------------------------------
	Average              0.00000 [K] +/-            0.00000 [K]

Adsorbate polarization energy:
=======================
	Block[ 0]            0.00000 [K]
	Block[ 1]            0.00000 [K]
	Block[ 2]            0.00000 [K]
	Block[ 3]            0.00000 [K]
	Block[ 4]            0.00000 [K]
	------------------------------------------------------------------------------
	Average              0.00000 [K] +/-            0.00000 [K]

Cation polarization energy:
=======================
	Block[ 0]            0.00000 [K]
	Block[ 1]            0.00000 [K]
	Block[ 2]            0.00000 [K]
	Block[ 3]            0.00000 [K]
	Block[ 4]            0.00000 [K]
	------------------------------------------------------------------------------
	Average              0.00000 [K] +/-            0.00000 [K]

Host back-polarization energy:
=======================
	Block[ 0]            0.00000 [K]
	Block[ 1]            0.00000 [K]
	Block[ 2]            0.00000 [K]
	Block[ 3]            0.00000 [K]
	Block[ 4]            0.00000 [K]
	------------------------------------------------------------------------------
	Average              0.00000 [K] +/-            0.00000 [K]

Adsorbate back-polarization energy:
=======================
	Block[ 0]            0.00000 [K]
	Block[ 1]            0.00000 [K]
	Block[ 2]            0.00000 [K]
	Block[ 3]            0.00000 [K]
	Block[ 4]            0.00000 [K]
	------------------------------------------------------------------------------
	Average              0.00000 [K] +/-            0.00000 [K]

Cation back-polarization energy:
=======================
	Block[ 0]            0.00000 [K]
	Block[ 1]            0.00000 [K]
	Block[ 2]            0.00000 [K]
	Block[ 3]            0.00000 [K]
	Block[ 4]            0.00000 [K]
	------------------------------------------------------------------------------
	Average              0.00000 [K] +/-            0.00000 [K]

Tail-correction energy:
=======================
	Block[ 0]            0.00000 [K]
	Block[ 1]            0.00000 [K]
	Block[ 2]            0.00000 [K]
	Block[ 3]            0.00000 [K]
	Block[ 4]            0.00000 [K]
	------------------------------------------------------------------------------
	Average              0.00000 [K] +/-            0.00000 [K]

Distance-constraints energy:
=======================
	Block[ 0]            0.00000 [K]
	Block[ 1]            0.00000 [K]
	Block[ 2]            0.00000 [K]
	Block[ 3]            0.00000 [K]
	Block[ 4]            0.00000 [K]
	------------------------------------------------------------------------------
	Average              0.00000 [K] +/-            0.00000 [K]

Angle-constraints energy:
=======================
	Block[ 0]            0.00000 [K]
	Block[ 1]            0.00000 [K]
	Block[ 2]            0.00000 [K]
	Block[ 3]            0.00000 [K]
	Block[ 4]            0.00000 [K]
	------------------------------------------------------------------------------
	Average              0.00000 [K] +/-            0.00000 [K]

Dihedral-constraints energy:
=======================
	Block[ 0]            0.00000 [K]
	Block[ 1]            0.00000 [K]
	Block[ 2]            0.00000 [K]
	Block[ 3]            0.00000 [K]
	Block[ 4]            0.00000 [K]
	------------------------------------------------------------------------------
	Average              0.00000 [K] +/-            0.00000 [K]

Inversion-bend constraints energy:
=======================
	Block[ 0]            0.00000 [K]
	Block[ 1]            0.00000 [K]
	Block[ 2]            0.00000 [K]
	Block[ 3]            0.00000 [K]
	Block[ 4]            0.00000 [K]
	------------------------------------------------------------------------------
	Average              0.00000 [K] +/-            0.00000 [K]

Out-of-plane-distance constraints energy:
=======================
	Block[ 0]            0.00000 [K]
	Block[ 1]            0.00000 [K]
	Block[ 2]            0.00000 [K]
	Block[ 3]            0.00000 [K]
	Block[ 4]            0.00000 [K]
	------------------------------------------------------------------------------
	Average              0.00000 [K] +/-            0.00000 [K]

Exclusion-constraints energy:
=======================
	Block[ 0]            0.00000 [K]
	Block[ 1]            0.00000 [K]
	Block[ 2]            0.00000 [K]
	Block[ 3]            0.00000 [K]
	Block[ 4]            0.00000 [K]
	------------------------------------------------------------------------------
	Average              0.00000 [K] +/-            0.00000 [K]

Total energy:
=============
	Block[ 0]       -40565.37825 [K]
	Block[ 1]       -39759.68276 [K]
	Block[ 2]       -39567.56604 [K]
	Block[ 3]       -40804.52039 [K]
	Block[ 4]       -40610.04219 [K]
	------------------------------------------------------------------------------
	Average         -40261.43793 [K] +/-          691.79225 [K]

Number of molecules:
====================

Component 0 [propane]
-------------------------------------------------------------
	Block[ 0] 15.10585           [-]
	Block[ 1] 14.88880           [-]
	Block[ 2] 14.79790           [-]
	Block[ 3] 15.20070           [-]
	Block[ 4] 15.11690           [-]
	------------------------------------------------------------------------------
	Average loading absolute                             15.0220300000 +/-       0.2113533155 [-]
	Average loading absolute [molecules/unit cell]        0.5563714815 +/-       0.0078279006 [-]
	Average loading absolute [mol/kg framework]                  1.0388013881 +/-       0.0146154759 [-]
	Average loading absolute [milligram/gram framework]         45.8065912637 +/-       0.6444784716 [-]
	Average loading absolute [cm^3 (STP)/gr framework]          23.2836691187 +/-       0.3275909225 [-]
	Average loading absolute [cm^3 (STP)/cm^3 framework]        24.2878529262 +/-       0.3417193443 [-]

	Block[ 0] 14.06066           [-]
	Block[ 1] 13.84361           [-]
	Block[ 2] 13.75271           [-]
	Block[ 3] 14.15551           [-]
	Block[ 4] 14.07171           [-]
	------------------------------------------------------------------------------
	Average loading excess                             13.9768371831 +/-       0.2113533155 [-]
	Average loading excess [molecules/unit cell]        0.5176606364 +/-       0.0078279006 [-]
	Average loading excess [mol/kg framework]                    0.9665243557 +/-       0.0146154759 [-]
	Average loading excess [milligram/gram framework]           42.6194907084 +/-       0.6444784716 [-]
	Average loading excess [cm^3 (STP)/gr framework]            21.6636534675 +/-       0.3275909225 [-]
	Average loading excess [cm^3 (STP)/cm^3 framework]          22.5979688416 +/-       0.3417193443 [-]


Average Widom Rosenbluth factor:
================================
	Block[ 0] 0 [-]
	Block[ 1] 0 [-]
	Block[ 2] 0 [-]
	Block[ 3] 0 [-]
	Block[ 4] 0 [-]
	------------------------------------------------------------------------------
	[propane] Average Widom Rosenbluth-weight:   0 +/- 0.000000 [-]

Average Widom chemical potential:
=================================
	Block[ 0] 0 [-]
	Block[ 1] 0 [-]
	Block[ 2] 0 [-]
	Block[ 3] 0 [-]
	Block[ 4] 0 [-]
	------------------------------------------------------------------------------
	[propane] Average chemical potential:   0 +/- 0.000000 [K]

Average Widom Ideal-gas contribution:
=====================================
	Block[ 0] 0 [-]
	Block[ 1] 0 [-]
	Block[ 2] 0 [-]
	Block[ 3] 0 [-]
	Block[ 4] 0 [-]
	------------------------------------------------------------------------------
	[propane] Average Widom Ideal-gas chemical potential:   0 +/- 0.000000 [-]

Average Widom excess contribution:
==================================
	Block[ 0] 0 [-]
	Block[ 1] 0 [-]
	Block[ 2] 0 [-]
	Block[ 3] 0 [-]
	Block[ 4] 0 [-]
	------------------------------------------------------------------------------
	[propane] Average Widom excess chemical potential:   0 +/- 0.000000 [-]

Average Gibbs Widom Rosenbluth factor:
======================================
	Block[ 0] 0 [-]
	Block[ 1] 0 [-]
	Block[ 2] 0 [-]
	Block[ 3] 0 [-]
	Block[ 4] 0 [-]
	------------------------------------------------------------------------------
	[propane] Average Gibbs Widom Rosenbluth-weight:   0 +/- 0.000000 [-]

Average Gibbs Widom chemical potential:
=======================================
	Block[ 0] 0 [-]
	Block[ 1] 0 [-]
	Block[ 2] 0 [-]
	Block[ 3] 0 [-]
	Block[ 4] 0 [-]
	------------------------------------------------------------------------------
	[propane] Average Gibbs chemical potential:   0 +/- 0.000000 [K]

Average Gibbs Widom Ideal-gas contribution:
===========================================
	Block[ 0] 0 [-]
	Block[ 1] 0 [-]
	Block[ 2] 0 [-]
	Block[ 3] 0 [-]
	Block[ 4] 0 [-]
	------------------------------------------------------------------------------
	[propane] Average Gibbs Ideal-gas chemical potential:   0 +/- 0.000000 [-]

Average Gibbs Widom excess contribution:
===========================================
	Block[ 0] 0 [-]
	Block[ 1] 0 [-]
	Block[ 2] 0 [-]
	Block[ 3] 0 [-]
	Block[ 4] 0 [-]
	------------------------------------------------------------------------------
	[propane] Average Gibbs excess chemical potential:   0 +/- 0.000000 [-]

Average Henry coefficient:
==========================
	Block[ 0] 0 [mol/kg/Pa]
	Block[ 1] 0 [mol/kg/Pa]
	Block[ 2] 0 [mol/kg/Pa]
	Block[ 3] 0 [mol/kg/Pa]
	Block[ 4] 0 [mol/kg/Pa]
	------------------------------------------------------------------------------
	[propane] Average Henry coefficient:  0 +/- 0 [mol/kg/Pa]

Average adsorption energy <U_gh>_1-<U_h>_0 obtained from Widom-insertion:
(Note: the total heat of adsorption is dH=<U_gh>_1-<U_h>_0 - <U_g> - RT)
=========================================================================

Simulation finished,  0 warnings


Tue Jan 11 00:58:00 2022
Simulation finished on Tuesday, January 11.
The end time was 12:58 AM.

