Compiler and run-time data
===========================================================================
RASPA 2.0.46
Compiled as a 64-bits application
Compiler: gcc 4.8.5 20150623 (Red Hat 4.8.5-44)
Compile Date = Oct 22 2021, Compile Time = 16:41:05

Tue Jan 11 00:14:08 2022
Simulation started on Tuesday, January 11.
The start time was 12:14 AM.

Hostname:    node091
OS type:     Linux on x86_64
OS release:  3.10.0-1160.25.1.el7.x86_64
OS version:  #1 SMP Wed Apr 28 21:49:45 UTC 2021

Simulation
===========================================================================
Dimensions: 3
Random number seed: 1641847969
RASPA directory set to: /mechthild/home/zhangx/RASPA/simulations/
String appended to output-files: 
Number of cycles: 100000
Number of initializing cycles: 50000
Number of equilibration cycles: 50000
Print every: 10000
Triclinic boundary condition applied
Timestep: 0.000500
	Degrees of freedom:                        54
	Translational Degrees of freedom:          54
	Rotational Degrees of freedom:             0
	Degrees of freedom Framework:              0


Mutual consistent basic set of units:
======================================
Unit of temperature: Kelvin
Unit of length:      1e-10 [m]
Unit of time:        1e-12 [s]
Unit of mass:        1.66054e-27 [kg]
Unit of charge:      1.60218e-19 [C/particle]

Derived units and their conversion factors:
===========================================
Unit of energy:              1.66054e-23 [J]
Unit of force:               1.66054e-13 [N]
Unit of pressure:            1.66054e+07 [Pa]
Unit of velocity:            100 [m/s]
Unit of acceleration:        1e-08 [m^2/s]
Unit of diffusion:           1e-08 [m^2/s]
Unit of dipole moment:       1.60218e-29 [C.m]
Unit of electric potential:  0.000103643 [V]
Unit of electric field:      1.03643e+06 [V]
Unit of polarizability:      1.54587e-35 [-]
Unit of Coulomb potential:   167101.0800066561  [K]
Unit of dielectric constant: 0.0000154587       [s^2 C^2/(kg m^3)]
Unit of wave vectors:        5.3088374589       [cm^1]
Boltzmann constant:          0.8314464919       [-]

Internal conversion factors:
===========================================
Energy to Kelvin:                                    1.2027242847
FH correction factor                                 2.0211930949
Heat capacity conversion factor:                    10.0000088723
From Debye to internal units:                        4.8032067991
Isothermal compressibility conversion factor:        0.0000000602

Energy conversion factors:
===========================================
From mdyne/A to kcal/mol/A^2:           143.933
From mdyne/A to kj/mol/A^2:             602.214
From mdyne/A to K/A^2:                  72429.7
From mdyne A/rad^2 to kcal/mol/deg^2:   0.0438444


Properties computed
===========================================================================
Movies: no
Radial Distribution Function: no
Number of molecules GCMC histogram: no
Histogram of the molecule positions: no
Free energy profiles: no
Pore Size Distribution Function: no
End-to-end distance: no
Histogram of the energy of the system: no
Compute thermodynamic factors: no
Framework spacing histograms: no
Residence times histograms: no
Distance histograms: no
Bend Angle histograms: no
Dihedral angle histograms: no
Angle between planes histograms: no
Molecule properties: no
Infra-red spectra: no
Mean-squared displacement using modified order-N algorithm: no
Velocity-autocorrelation function modified order-N algorithm: no
Rotational velocity-autocorrelation function modified order-N algorithm: no
Molecular orientation-autocorrelation function modified order-N algorithm: no
Bond orientation-autocorrelation function modified order-N algorithm: no
Mean-squared displacement (conventional algorithm): no
Velocity-autocorrelation function (conventional algorithm): no
3D density grid for adsorbates: no
Compute cation an/or adsorption sites: no
dcTST snapshots: no
Compute pressure and stress: no


VTK
===========================================================================
VTK fractional-range position framework atoms: [-0.001000,1.001000] [-0.001000,1.001000] [-0.001000,1.001000]
VTK fractional-range position framework bonds: [-0.151000,1.151000] [-0.151000,1.151000] [-0.151000,1.151000]
VTK fractional-range com-position adsorbate molecules: [-0.101000,1.101000] [-0.101000,1.101000] [-0.101000,1.101000]
VTK fractional-range com-position cation molecules: [-0.101000,1.101000] [-0.101000,1.101000] [-0.101000,1.101000]
	3D free energy grid made for the full simulation-cell


Thermo/Baro-stat NHC parameters
===========================================================================
External temperature: 300 [K]
Beta: 0.00400908 [energy unit]
Number of isotherm points: 5
	 point   0: External Pressure: 1013 [Pa]
	 point   1: External Pressure: 10132 [Pa]
	 point   2: External Pressure: 101325 [Pa]
	 point   3: External Pressure: 202650 [Pa]
		 point   4: External Pressure: 506625 [Pa]


Thermostat chain-length: 3
Timescale parameter for thermostat: 0.150000 [ps]
Barostat chain-length:   3
Timescale parameter for barostat:   0.150000 [ps]

Number of Yoshida-Suzuki decomposition steps: 5
Number of respa steps: 5


Method and settings for electrostatics
===============================================================================
Dielectric constant of the medium : 1.000000
Charge from charge-equilibration: no
Ewald summation is used (exact solution of a periodic system)
Relative precision                : 1e-06
Alpha convergence parameter       : 0.265058
kvec (x,y,z)                      : 8 8 8


CFC-RXMC parameters
===========================================================================
Number of reactions: 0


Rattle parameters
===========================================================================
Distance constraint type: r^2-r^2_0
Bend angle constraint type: theta-theta_0
Dihedral angle constraint type: phi-phi_0
Inversion-bend angle constraint type: chi-chi_0
Out-of-plane distance constraint type: r-r_0


Spectra parameters
===========================================================================
Compute normal modes: no


Minimization parameters
===========================================================================
Generalized coordinates are: Cartesian center-of-mass, elements of the orientational matrix p1,p2,p3 and strain
Potential derivatives are evaluated: analytically
Translation of the system is removed from the generalized Hessian: no
Rotation of the system is removed from the generalized Hessian: no
Maximum step-length: 0.3
Convergence factor: 1
Maximum number of minimization steps: 10000
Use gradients in the line-minimizations: yes
RMS gradient tolerance: 1e-06
Maximum gradient tolerance: 1e-06

Distance constraints: 0
Angle constraints: 0
Dihedral constraints: 0

Improper dihedral constraints: 0

Inversion-bend constraints: 0

Out-of-plane constraints: 0

Harmonic distance constraints: 0
Harmonic angle constraints: 0
Harmonic dihedral constraints: 0

Dihedral mid-point measurements: 0

All framework atoms are fixed

Fixed adsorbate atoms:  
Fixed adsorbate groups (center-of-mass):  
Fixed adsorbate groups (orientation):  

Fixed cation atoms:  
Fixed cation groups (center-of-mass):  
Fixed cation groups (orientation):  


dcTST parameters
===========================================================================
Free energy profiles computed: no
Free energy profiles written every 5000 cycles
Free energy mapping: mapped to a,b,c-coordinates
BarrierPosition:       0.0000000000       0.0000000000       0.0000000000
BarrierNormal:         0.0000000000       0.0000000000       0.0000000000
Start with a molecule on top of the barrier: no
Maximum distance to barrier (e.g. distance to minumum free energy):       0.0000000000 [A]
Maximum trajectory time:      10.0000000000 [ps]
Each configuration is used with 5 different initial velocities


Cbmc parameters
===========================================================================
Biasing method: using only the VDW part
Number of trial positions:                                       10
Number of trial positions (reinsertion):                         10
Number of trial positions (partial reinsertion):                 10
Number of trial positions (identity-change):                     10
Number of trial positions (Gibbs particle transfer):             10
Number of trial positions (insertion/deletion):                  10
Number of trial positions (Widom insertion):                     10
Number of trial positions coupled Torsion-selection:             100
Number of trial positions first bead:                            10
Number of trial positions first bead (reinsertion):              10
Number of trial positions first bead (partial reinsertion):      10
Number of trial positions first bead (identity-change):          10
Number of trial positions first bead (Gibbs particle transfer):  10
Number of trial positions first bead (insertion/deletion):       10
Number of trial positions first bead (Widom insertion):          10
Number of trial moves per open bead:                             150
Target acceptance ratio small-mc scheme:                         0.400000
Energy overlap criteria:                                         1e+07
Minimal Rosenbluth factor:                                       1e-150


Pseudo atoms: 34
===========================================================================
Pseudo Atom[   0] Name UNIT     Oxidation:          Element: H    pdb-name: H    Scat. Types:   1   1 Mass=1.000000000  B-factor:0.000   
                 Charge=1.000000000          Polarization=0.000000000  [A^3] (considered a charged atom and no polarization)  Interactions: yes
                 Anisotropic factor:    0.000 [-] (Absolute), Radius:    1.000 [A], Framework-atom:  no
Pseudo Atom[   1] Name CH3_SP3  Oxidation: +0       Element: C    pdb-name: C    Scat. Types:   7   6 Mass=15.034520000 B-factor:1.000   
                 Charge=0.000000000          Polarization=0.000000000  [A^3] (considered a chargeless atom and no polarization)  Interactions: yes
                 Anisotropic factor:    0.000 [-] (Absolute), Radius:    1.000 [A], Framework-atom:  no
Pseudo Atom[   2] Name CH2_SP2  Oxidation: +0       Element: C    pdb-name: C    Scat. Types:   7   6 Mass=14.026580000 B-factor:1.000   
                 Charge=0.000000000          Polarization=0.000000000  [A^3] (considered a chargeless atom and no polarization)  Interactions: yes
                 Anisotropic factor:    0.000 [-] (Absolute), Radius:    1.000 [A], Framework-atom:  no
Pseudo Atom[   3] Name CH_SP2   Oxidation: +0       Element: C    pdb-name: C    Scat. Types:   7   6 Mass=13.018640000 B-factor:1.000   
                 Charge=0.000000000          Polarization=0.000000000  [A^3] (considered a chargeless atom and no polarization)  Interactions: yes
                 Anisotropic factor:    0.000 [-] (Absolute), Radius:    1.000 [A], Framework-atom:  no
Pseudo Atom[   4] Name CH3_A    Oxidation: +0       Element: C    pdb-name: C    Scat. Types:   7   6 Mass=15.034520000 B-factor:1.000   
                 Charge=0.000000000          Polarization=0.000000000  [A^3] (considered a chargeless atom and no polarization)  Interactions: yes
                 Anisotropic factor:    0.000 [-] (Absolute), Radius:    1.000 [A], Framework-atom:  no
Pseudo Atom[   5] Name CH2_A    Oxidation: +0       Element: C    pdb-name: C    Scat. Types:   7   6 Mass=14.026580000 B-factor:1.000   
                 Charge=0.000000000          Polarization=0.000000000  [A^3] (considered a chargeless atom and no polarization)  Interactions: yes
                 Anisotropic factor:    0.000 [-] (Absolute), Radius:    1.000 [A], Framework-atom:  no
Pseudo Atom[   6] Name Cd5      Oxidation:          Element: Cd   pdb-name: Cd   Scat. Types:  49  48 Mass=112.411552201 B-factor:0.000   
                 Charge=1.000000000    (av)  Polarization=7.360000000  [A^3] (considered a charged atom and no polarization)  Interactions: yes
                 Anisotropic factor:    0.000 [-] (Absolute), Radius:    1.400 [A], Framework-atom: yes (charge from structure file)
Pseudo Atom[   7] Name Cd12     Oxidation:          Element: Cd   pdb-name: Cd   Scat. Types:  49  48 Mass=112.411552201 B-factor:0.000   
                 Charge=1.000000000    (av)  Polarization=7.360000000  [A^3] (considered a charged atom and no polarization)  Interactions: yes
                 Anisotropic factor:    0.000 [-] (Absolute), Radius:    1.400 [A], Framework-atom: yes (charge from structure file)
Pseudo Atom[   8] Name Cd19     Oxidation:          Element: Cd   pdb-name: Cd   Scat. Types:  49  48 Mass=112.411552201 B-factor:0.000   
                 Charge=1.000000000    (av)  Polarization=7.360000000  [A^3] (considered a charged atom and no polarization)  Interactions: yes
                 Anisotropic factor:    0.000 [-] (Absolute), Radius:    1.400 [A], Framework-atom: yes (charge from structure file)
Pseudo Atom[   9] Name Cd26     Oxidation:          Element: Cd   pdb-name: Cd   Scat. Types:  49  48 Mass=112.411552201 B-factor:0.000   
                 Charge=1.000000000    (av)  Polarization=7.360000000  [A^3] (considered a charged atom and no polarization)  Interactions: yes
                 Anisotropic factor:    0.000 [-] (Absolute), Radius:    1.400 [A], Framework-atom: yes (charge from structure file)
Pseudo Atom[  10] Name N51      Oxidation:          Element: N    pdb-name: N    Scat. Types:   8   7 Mass=14.006703212 B-factor:0.000   
                 Charge=-0.166700000   (av)  Polarization=1.100000000  [A^3] (considered a charged atom and no polarization)  Interactions: yes
                 Anisotropic factor:    0.000 [-] (Absolute), Radius:    0.710 [A], Framework-atom: yes (charge from structure file)
Pseudo Atom[  11] Name N52      Oxidation:          Element: N    pdb-name: N    Scat. Types:   8   7 Mass=14.006703212 B-factor:0.000   
                 Charge=-0.166700000   (av)  Polarization=1.100000000  [A^3] (considered a charged atom and no polarization)  Interactions: yes
                 Anisotropic factor:    0.000 [-] (Absolute), Radius:    0.710 [A], Framework-atom: yes (charge from structure file)
Pseudo Atom[  12] Name N49      Oxidation:          Element: N    pdb-name: N    Scat. Types:   8   7 Mass=14.006703212 B-factor:0.000   
                 Charge=-0.166700000   (av)  Polarization=1.100000000  [A^3] (considered a charged atom and no polarization)  Interactions: yes
                 Anisotropic factor:    0.000 [-] (Absolute), Radius:    0.710 [A], Framework-atom: yes (charge from structure file)
Pseudo Atom[  13] Name N50      Oxidation:          Element: N    pdb-name: N    Scat. Types:   8   7 Mass=14.006703212 B-factor:0.000   
                 Charge=-0.166700000   (av)  Polarization=1.100000000  [A^3] (considered a charged atom and no polarization)  Interactions: yes
                 Anisotropic factor:    0.000 [-] (Absolute), Radius:    0.710 [A], Framework-atom: yes (charge from structure file)
Pseudo Atom[  14] Name N47      Oxidation:          Element: N    pdb-name: N    Scat. Types:   8   7 Mass=14.006703212 B-factor:0.000   
                 Charge=-0.166700000   (av)  Polarization=1.100000000  [A^3] (considered a charged atom and no polarization)  Interactions: yes
                 Anisotropic factor:    0.000 [-] (Absolute), Radius:    0.710 [A], Framework-atom: yes (charge from structure file)
Pseudo Atom[  15] Name N48      Oxidation:          Element: N    pdb-name: N    Scat. Types:   8   7 Mass=14.006703212 B-factor:0.000   
                 Charge=-0.166700000   (av)  Polarization=1.100000000  [A^3] (considered a charged atom and no polarization)  Interactions: yes
                 Anisotropic factor:    0.000 [-] (Absolute), Radius:    0.710 [A], Framework-atom: yes (charge from structure file)
Pseudo Atom[  16] Name N45      Oxidation:          Element: N    pdb-name: N    Scat. Types:   8   7 Mass=14.006703212 B-factor:0.000   
                 Charge=-0.165900000   (av)  Polarization=1.100000000  [A^3] (considered a charged atom and no polarization)  Interactions: yes
                 Anisotropic factor:    0.000 [-] (Absolute), Radius:    0.710 [A], Framework-atom: yes (charge from structure file)
Pseudo Atom[  17] Name N46      Oxidation:          Element: N    pdb-name: N    Scat. Types:   8   7 Mass=14.006703212 B-factor:0.000   
                 Charge=-0.166700000   (av)  Polarization=1.100000000  [A^3] (considered a charged atom and no polarization)  Interactions: yes
                 Anisotropic factor:    0.000 [-] (Absolute), Radius:    0.710 [A], Framework-atom: yes (charge from structure file)
Pseudo Atom[  18] Name N43      Oxidation:          Element: N    pdb-name: N    Scat. Types:   8   7 Mass=14.006703212 B-factor:0.000   
                 Charge=-0.166700000   (av)  Polarization=1.100000000  [A^3] (considered a charged atom and no polarization)  Interactions: yes
                 Anisotropic factor:    0.000 [-] (Absolute), Radius:    0.710 [A], Framework-atom: yes (charge from structure file)
Pseudo Atom[  19] Name N44      Oxidation:          Element: N    pdb-name: N    Scat. Types:   8   7 Mass=14.006703212 B-factor:0.000   
                 Charge=-0.166700000   (av)  Polarization=1.100000000  [A^3] (considered a charged atom and no polarization)  Interactions: yes
                 Anisotropic factor:    0.000 [-] (Absolute), Radius:    0.710 [A], Framework-atom: yes (charge from structure file)
Pseudo Atom[  20] Name N41      Oxidation:          Element: N    pdb-name: N    Scat. Types:   8   7 Mass=14.006703212 B-factor:0.000   
                 Charge=-0.166700000   (av)  Polarization=1.100000000  [A^3] (considered a charged atom and no polarization)  Interactions: yes
                 Anisotropic factor:    0.000 [-] (Absolute), Radius:    0.710 [A], Framework-atom: yes (charge from structure file)
Pseudo Atom[  21] Name N42      Oxidation:          Element: N    pdb-name: N    Scat. Types:   8   7 Mass=14.006703212 B-factor:0.000   
                 Charge=-0.166700000   (av)  Polarization=1.100000000  [A^3] (considered a charged atom and no polarization)  Interactions: yes
                 Anisotropic factor:    0.000 [-] (Absolute), Radius:    0.710 [A], Framework-atom: yes (charge from structure file)
Pseudo Atom[  22] Name N39      Oxidation:          Element: N    pdb-name: N    Scat. Types:   8   7 Mass=14.006703212 B-factor:0.000   
                 Charge=-0.166700000   (av)  Polarization=1.100000000  [A^3] (considered a charged atom and no polarization)  Interactions: yes
                 Anisotropic factor:    0.000 [-] (Absolute), Radius:    0.710 [A], Framework-atom: yes (charge from structure file)
Pseudo Atom[  23] Name N40      Oxidation:          Element: N    pdb-name: N    Scat. Types:   8   7 Mass=14.006703212 B-factor:0.000   
                 Charge=-0.166700000   (av)  Polarization=1.100000000  [A^3] (considered a charged atom and no polarization)  Interactions: yes
                 Anisotropic factor:    0.000 [-] (Absolute), Radius:    0.710 [A], Framework-atom: yes (charge from structure file)
Pseudo Atom[  24] Name N37      Oxidation:          Element: N    pdb-name: N    Scat. Types:   8   7 Mass=14.006703212 B-factor:0.000   
                 Charge=-0.166700000   (av)  Polarization=1.100000000  [A^3] (considered a charged atom and no polarization)  Interactions: yes
                 Anisotropic factor:    0.000 [-] (Absolute), Radius:    0.710 [A], Framework-atom: yes (charge from structure file)
Pseudo Atom[  25] Name N38      Oxidation:          Element: N    pdb-name: N    Scat. Types:   8   7 Mass=14.006703212 B-factor:0.000   
                 Charge=-0.166700000   (av)  Polarization=1.100000000  [A^3] (considered a charged atom and no polarization)  Interactions: yes
                 Anisotropic factor:    0.000 [-] (Absolute), Radius:    0.710 [A], Framework-atom: yes (charge from structure file)
Pseudo Atom[  26] Name N35      Oxidation:          Element: N    pdb-name: N    Scat. Types:   8   7 Mass=14.006703212 B-factor:0.000   
                 Charge=-0.166700000   (av)  Polarization=1.100000000  [A^3] (considered a charged atom and no polarization)  Interactions: yes
                 Anisotropic factor:    0.000 [-] (Absolute), Radius:    0.710 [A], Framework-atom: yes (charge from structure file)
Pseudo Atom[  27] Name N36      Oxidation:          Element: N    pdb-name: N    Scat. Types:   8   7 Mass=14.006703212 B-factor:0.000   
                 Charge=-0.166700000   (av)  Polarization=1.100000000  [A^3] (considered a charged atom and no polarization)  Interactions: yes
                 Anisotropic factor:    0.000 [-] (Absolute), Radius:    0.710 [A], Framework-atom: yes (charge from structure file)
Pseudo Atom[  28] Name N33      Oxidation:          Element: N    pdb-name: N    Scat. Types:   8   7 Mass=14.006703212 B-factor:0.000   
                 Charge=-0.166700000   (av)  Polarization=1.100000000  [A^3] (considered a charged atom and no polarization)  Interactions: yes
                 Anisotropic factor:    0.000 [-] (Absolute), Radius:    0.710 [A], Framework-atom: yes (charge from structure file)
Pseudo Atom[  29] Name N34      Oxidation:          Element: N    pdb-name: N    Scat. Types:   8   7 Mass=14.006703212 B-factor:0.000   
                 Charge=-0.166700000   (av)  Polarization=1.100000000  [A^3] (considered a charged atom and no polarization)  Interactions: yes
                 Anisotropic factor:    0.000 [-] (Absolute), Radius:    0.710 [A], Framework-atom: yes (charge from structure file)
Pseudo Atom[  30] Name N31      Oxidation:          Element: N    pdb-name: N    Scat. Types:   8   7 Mass=14.006703212 B-factor:0.000   
                 Charge=-0.166700000   (av)  Polarization=1.100000000  [A^3] (considered a charged atom and no polarization)  Interactions: yes
                 Anisotropic factor:    0.000 [-] (Absolute), Radius:    0.710 [A], Framework-atom: yes (charge from structure file)
Pseudo Atom[  31] Name N32      Oxidation:          Element: N    pdb-name: N    Scat. Types:   8   7 Mass=14.006703212 B-factor:0.000   
                 Charge=-0.166700000   (av)  Polarization=1.100000000  [A^3] (considered a charged atom and no polarization)  Interactions: yes
                 Anisotropic factor:    0.000 [-] (Absolute), Radius:    0.710 [A], Framework-atom: yes (charge from structure file)
Pseudo Atom[  32] Name N29      Oxidation:          Element: N    pdb-name: N    Scat. Types:   8   7 Mass=14.006703212 B-factor:0.000   
                 Charge=-0.166700000   (av)  Polarization=1.100000000  [A^3] (considered a charged atom and no polarization)  Interactions: yes
                 Anisotropic factor:    0.000 [-] (Absolute), Radius:    0.710 [A], Framework-atom: yes (charge from structure file)
Pseudo Atom[  33] Name N30      Oxidation:          Element: N    pdb-name: N    Scat. Types:   8   7 Mass=14.006703212 B-factor:0.000   
                 Charge=-0.166700000   (av)  Polarization=1.100000000  [A^3] (considered a charged atom and no polarization)  Interactions: yes
                 Anisotropic factor:    0.000 [-] (Absolute), Radius:    0.710 [A], Framework-atom: yes (charge from structure file)


Forcefield: ForceFieldPAPE
===========================================================================
Minimal distance: 1
CutOff VDW : 12.000000 (144.000000)
CutOff VDW switching on: 10.800000 (116.640000)
CutOff charge-charge : 12.000000 (144.000000)
CutOff charge-charge switching on: 7.800000 (60.840000)
CutOff charge-bonddipole : 12.000000 (144.000000)
CutOff charge-bondipole switching on: 8.400000 (70.560000)
CutOff bonddipole-bonddipole : 12.000000 (144.000000)
CutOff bonddipole-bondipole switching on: 9.000000 (81.000000)
Polarization is neglected
All potentials are shifted to zero at the Cutoff

General mixing rule: Lorentz-Berthelot mixing rules are used FIRST for cross terms
0 cross terms are overwritten using the individual mixing rules from the file 'force_field_mixing_rules.def'
and then 0 terms are overwritten using the specific interactions from the file 'force_field.def'

The force field and all the interactions:
CH3_SP3 - CH3_SP3 [LENNARD_JONES] p_0/k_B:  98.00000 [K], p_1: 3.75000 [A], shift/k_B:  -0.36473844 [K], tailcorrection: no
CH3_SP3 - CH2_SP2 [LENNARD_JONES] p_0/k_B:  91.26883 [K], p_1: 3.71250 [A], shift/k_B:  -0.31982531 [K], tailcorrection: no
CH3_SP3 -  CH_SP2 [LENNARD_JONES] p_0/k_B:  67.86752 [K], p_1: 3.74000 [A], shift/k_B:  -0.24857982 [K], tailcorrection: no
CH3_SP3 -   CH3_A [LENNARD_JONES] p_0/k_B:  98.00000 [K], p_1: 3.75000 [A], shift/k_B:  -0.36473844 [K], tailcorrection: no
CH3_SP3 -   CH2_A [LENNARD_JONES] p_0/k_B:  67.14164 [K], p_1: 3.85000 [A], shift/k_B:  -0.29258694 [K], tailcorrection: no
CH3_SP3 -     Cd5 [LENNARD_JONES] p_0/k_B: 106.03741 [K], p_1: 3.14364 [A], shift/k_B:  -0.13705285 [K], tailcorrection: no
CH3_SP3 -    Cd12 [LENNARD_JONES] p_0/k_B: 106.03741 [K], p_1: 3.14364 [A], shift/k_B:  -0.13705285 [K], tailcorrection: no
CH3_SP3 -    Cd19 [LENNARD_JONES] p_0/k_B: 106.03741 [K], p_1: 3.14364 [A], shift/k_B:  -0.13705285 [K], tailcorrection: no
CH3_SP3 -    Cd26 [LENNARD_JONES] p_0/k_B: 106.03741 [K], p_1: 3.14364 [A], shift/k_B:  -0.13705285 [K], tailcorrection: no
CH3_SP3 -     N51 [LENNARD_JONES] p_0/k_B:  58.33328 [K], p_1: 3.50535 [A], shift/k_B:  -0.14487839 [K], tailcorrection: no
CH3_SP3 -     N52 [LENNARD_JONES] p_0/k_B:  58.33328 [K], p_1: 3.50535 [A], shift/k_B:  -0.14487839 [K], tailcorrection: no
CH3_SP3 -     N49 [LENNARD_JONES] p_0/k_B:  58.33328 [K], p_1: 3.50535 [A], shift/k_B:  -0.14487839 [K], tailcorrection: no
CH3_SP3 -     N50 [LENNARD_JONES] p_0/k_B:  58.33328 [K], p_1: 3.50535 [A], shift/k_B:  -0.14487839 [K], tailcorrection: no
CH3_SP3 -     N47 [LENNARD_JONES] p_0/k_B:  58.33328 [K], p_1: 3.50535 [A], shift/k_B:  -0.14487839 [K], tailcorrection: no
CH3_SP3 -     N48 [LENNARD_JONES] p_0/k_B:  58.33328 [K], p_1: 3.50535 [A], shift/k_B:  -0.14487839 [K], tailcorrection: no
CH3_SP3 -     N45 [LENNARD_JONES] p_0/k_B:  58.33328 [K], p_1: 3.50535 [A], shift/k_B:  -0.14487839 [K], tailcorrection: no
CH3_SP3 -     N46 [LENNARD_JONES] p_0/k_B:  58.33328 [K], p_1: 3.50535 [A], shift/k_B:  -0.14487839 [K], tailcorrection: no
CH3_SP3 -     N43 [LENNARD_JONES] p_0/k_B:  58.33328 [K], p_1: 3.50535 [A], shift/k_B:  -0.14487839 [K], tailcorrection: no
CH3_SP3 -     N44 [LENNARD_JONES] p_0/k_B:  58.33328 [K], p_1: 3.50535 [A], shift/k_B:  -0.14487839 [K], tailcorrection: no
CH3_SP3 -     N41 [LENNARD_JONES] p_0/k_B:  58.33328 [K], p_1: 3.50535 [A], shift/k_B:  -0.14487839 [K], tailcorrection: no
CH3_SP3 -     N42 [LENNARD_JONES] p_0/k_B:  58.33328 [K], p_1: 3.50535 [A], shift/k_B:  -0.14487839 [K], tailcorrection: no
CH3_SP3 -     N39 [LENNARD_JONES] p_0/k_B:  58.33328 [K], p_1: 3.50535 [A], shift/k_B:  -0.14487839 [K], tailcorrection: no
CH3_SP3 -     N40 [LENNARD_JONES] p_0/k_B:  58.33328 [K], p_1: 3.50535 [A], shift/k_B:  -0.14487839 [K], tailcorrection: no
CH3_SP3 -     N37 [LENNARD_JONES] p_0/k_B:  58.33328 [K], p_1: 3.50535 [A], shift/k_B:  -0.14487839 [K], tailcorrection: no
CH3_SP3 -     N38 [LENNARD_JONES] p_0/k_B:  58.33328 [K], p_1: 3.50535 [A], shift/k_B:  -0.14487839 [K], tailcorrection: no
CH3_SP3 -     N35 [LENNARD_JONES] p_0/k_B:  58.33328 [K], p_1: 3.50535 [A], shift/k_B:  -0.14487839 [K], tailcorrection: no
CH3_SP3 -     N36 [LENNARD_JONES] p_0/k_B:  58.33328 [K], p_1: 3.50535 [A], shift/k_B:  -0.14487839 [K], tailcorrection: no
CH3_SP3 -     N33 [LENNARD_JONES] p_0/k_B:  58.33328 [K], p_1: 3.50535 [A], shift/k_B:  -0.14487839 [K], tailcorrection: no
CH3_SP3 -     N34 [LENNARD_JONES] p_0/k_B:  58.33328 [K], p_1: 3.50535 [A], shift/k_B:  -0.14487839 [K], tailcorrection: no
CH3_SP3 -     N31 [LENNARD_JONES] p_0/k_B:  58.33328 [K], p_1: 3.50535 [A], shift/k_B:  -0.14487839 [K], tailcorrection: no
CH3_SP3 -     N32 [LENNARD_JONES] p_0/k_B:  58.33328 [K], p_1: 3.50535 [A], shift/k_B:  -0.14487839 [K], tailcorrection: no
CH3_SP3 -     N29 [LENNARD_JONES] p_0/k_B:  58.33328 [K], p_1: 3.50535 [A], shift/k_B:  -0.14487839 [K], tailcorrection: no
CH3_SP3 -     N30 [LENNARD_JONES] p_0/k_B:  58.33328 [K], p_1: 3.50535 [A], shift/k_B:  -0.14487839 [K], tailcorrection: no
CH2_SP2 - CH2_SP2 [LENNARD_JONES] p_0/k_B:  85.00000 [K], p_1: 3.67500 [A], shift/k_B:  -0.28027029 [K], tailcorrection: no
CH2_SP2 -  CH_SP2 [LENNARD_JONES] p_0/k_B:  63.20601 [K], p_1: 3.70250 [A], shift/k_B:  -0.21793474 [K], tailcorrection: no
CH2_SP2 -   CH3_A [LENNARD_JONES] p_0/k_B:  91.26883 [K], p_1: 3.71250 [A], shift/k_B:  -0.31982531 [K], tailcorrection: no
CH2_SP2 -   CH2_A [LENNARD_JONES] p_0/k_B:  62.52999 [K], p_1: 3.81250 [A], shift/k_B:  -0.25696451 [K], tailcorrection: no
CH2_SP2 -     Cd5 [LENNARD_JONES] p_0/k_B:  98.75419 [K], p_1: 3.10614 [A], shift/k_B:  -0.11877460 [K], tailcorrection: no
CH2_SP2 -    Cd12 [LENNARD_JONES] p_0/k_B:  98.75419 [K], p_1: 3.10614 [A], shift/k_B:  -0.11877460 [K], tailcorrection: no
CH2_SP2 -    Cd19 [LENNARD_JONES] p_0/k_B:  98.75419 [K], p_1: 3.10614 [A], shift/k_B:  -0.11877460 [K], tailcorrection: no
CH2_SP2 -    Cd26 [LENNARD_JONES] p_0/k_B:  98.75419 [K], p_1: 3.10614 [A], shift/k_B:  -0.11877460 [K], tailcorrection: no
CH2_SP2 -     N51 [LENNARD_JONES] p_0/k_B:  54.32664 [K], p_1: 3.46784 [A], shift/k_B:  -0.12649996 [K], tailcorrection: no
CH2_SP2 -     N52 [LENNARD_JONES] p_0/k_B:  54.32664 [K], p_1: 3.46784 [A], shift/k_B:  -0.12649996 [K], tailcorrection: no
CH2_SP2 -     N49 [LENNARD_JONES] p_0/k_B:  54.32664 [K], p_1: 3.46784 [A], shift/k_B:  -0.12649996 [K], tailcorrection: no
CH2_SP2 -     N50 [LENNARD_JONES] p_0/k_B:  54.32664 [K], p_1: 3.46784 [A], shift/k_B:  -0.12649996 [K], tailcorrection: no
CH2_SP2 -     N47 [LENNARD_JONES] p_0/k_B:  54.32664 [K], p_1: 3.46784 [A], shift/k_B:  -0.12649996 [K], tailcorrection: no
CH2_SP2 -     N48 [LENNARD_JONES] p_0/k_B:  54.32664 [K], p_1: 3.46784 [A], shift/k_B:  -0.12649996 [K], tailcorrection: no
CH2_SP2 -     N45 [LENNARD_JONES] p_0/k_B:  54.32664 [K], p_1: 3.46784 [A], shift/k_B:  -0.12649996 [K], tailcorrection: no
CH2_SP2 -     N46 [LENNARD_JONES] p_0/k_B:  54.32664 [K], p_1: 3.46784 [A], shift/k_B:  -0.12649996 [K], tailcorrection: no
CH2_SP2 -     N43 [LENNARD_JONES] p_0/k_B:  54.32664 [K], p_1: 3.46784 [A], shift/k_B:  -0.12649996 [K], tailcorrection: no
CH2_SP2 -     N44 [LENNARD_JONES] p_0/k_B:  54.32664 [K], p_1: 3.46784 [A], shift/k_B:  -0.12649996 [K], tailcorrection: no
CH2_SP2 -     N41 [LENNARD_JONES] p_0/k_B:  54.32664 [K], p_1: 3.46784 [A], shift/k_B:  -0.12649996 [K], tailcorrection: no
CH2_SP2 -     N42 [LENNARD_JONES] p_0/k_B:  54.32664 [K], p_1: 3.46784 [A], shift/k_B:  -0.12649996 [K], tailcorrection: no
CH2_SP2 -     N39 [LENNARD_JONES] p_0/k_B:  54.32664 [K], p_1: 3.46784 [A], shift/k_B:  -0.12649996 [K], tailcorrection: no
CH2_SP2 -     N40 [LENNARD_JONES] p_0/k_B:  54.32664 [K], p_1: 3.46784 [A], shift/k_B:  -0.12649996 [K], tailcorrection: no
CH2_SP2 -     N37 [LENNARD_JONES] p_0/k_B:  54.32664 [K], p_1: 3.46784 [A], shift/k_B:  -0.12649996 [K], tailcorrection: no
CH2_SP2 -     N38 [LENNARD_JONES] p_0/k_B:  54.32664 [K], p_1: 3.46784 [A], shift/k_B:  -0.12649996 [K], tailcorrection: no
CH2_SP2 -     N35 [LENNARD_JONES] p_0/k_B:  54.32664 [K], p_1: 3.46784 [A], shift/k_B:  -0.12649996 [K], tailcorrection: no
CH2_SP2 -     N36 [LENNARD_JONES] p_0/k_B:  54.32664 [K], p_1: 3.46784 [A], shift/k_B:  -0.12649996 [K], tailcorrection: no
CH2_SP2 -     N33 [LENNARD_JONES] p_0/k_B:  54.32664 [K], p_1: 3.46784 [A], shift/k_B:  -0.12649996 [K], tailcorrection: no
CH2_SP2 -     N34 [LENNARD_JONES] p_0/k_B:  54.32664 [K], p_1: 3.46784 [A], shift/k_B:  -0.12649996 [K], tailcorrection: no
CH2_SP2 -     N31 [LENNARD_JONES] p_0/k_B:  54.32664 [K], p_1: 3.46784 [A], shift/k_B:  -0.12649996 [K], tailcorrection: no
CH2_SP2 -     N32 [LENNARD_JONES] p_0/k_B:  54.32664 [K], p_1: 3.46784 [A], shift/k_B:  -0.12649996 [K], tailcorrection: no
CH2_SP2 -     N29 [LENNARD_JONES] p_0/k_B:  54.32664 [K], p_1: 3.46784 [A], shift/k_B:  -0.12649996 [K], tailcorrection: no
CH2_SP2 -     N30 [LENNARD_JONES] p_0/k_B:  54.32664 [K], p_1: 3.46784 [A], shift/k_B:  -0.12649996 [K], tailcorrection: no
 CH_SP2 -  CH_SP2 [LENNARD_JONES] p_0/k_B:  47.00000 [K], p_1: 3.73000 [A], shift/k_B:  -0.16940705 [K], tailcorrection: no
 CH_SP2 -   CH3_A [LENNARD_JONES] p_0/k_B:  67.86752 [K], p_1: 3.74000 [A], shift/k_B:  -0.24857982 [K], tailcorrection: no
 CH_SP2 -   CH2_A [LENNARD_JONES] p_0/k_B:  46.49731 [K], p_1: 3.84000 [A], shift/k_B:  -0.19949000 [K], tailcorrection: no
 CH_SP2 -     Cd5 [LENNARD_JONES] p_0/k_B:  73.43363 [K], p_1: 3.13364 [A], shift/k_B:  -0.09311602 [K], tailcorrection: no
 CH_SP2 -    Cd12 [LENNARD_JONES] p_0/k_B:  73.43363 [K], p_1: 3.13364 [A], shift/k_B:  -0.09311602 [K], tailcorrection: no
 CH_SP2 -    Cd19 [LENNARD_JONES] p_0/k_B:  73.43363 [K], p_1: 3.13364 [A], shift/k_B:  -0.09311602 [K], tailcorrection: no
 CH_SP2 -    Cd26 [LENNARD_JONES] p_0/k_B:  73.43363 [K], p_1: 3.13364 [A], shift/k_B:  -0.09311602 [K], tailcorrection: no
 CH_SP2 -     N51 [LENNARD_JONES] p_0/k_B:  40.39730 [K], p_1: 3.49534 [A], shift/k_B:  -0.09862790 [K], tailcorrection: no
 CH_SP2 -     N52 [LENNARD_JONES] p_0/k_B:  40.39730 [K], p_1: 3.49534 [A], shift/k_B:  -0.09862790 [K], tailcorrection: no
 CH_SP2 -     N49 [LENNARD_JONES] p_0/k_B:  40.39730 [K], p_1: 3.49534 [A], shift/k_B:  -0.09862790 [K], tailcorrection: no
 CH_SP2 -     N50 [LENNARD_JONES] p_0/k_B:  40.39730 [K], p_1: 3.49534 [A], shift/k_B:  -0.09862790 [K], tailcorrection: no
 CH_SP2 -     N47 [LENNARD_JONES] p_0/k_B:  40.39730 [K], p_1: 3.49534 [A], shift/k_B:  -0.09862790 [K], tailcorrection: no
 CH_SP2 -     N48 [LENNARD_JONES] p_0/k_B:  40.39730 [K], p_1: 3.49534 [A], shift/k_B:  -0.09862790 [K], tailcorrection: no
 CH_SP2 -     N45 [LENNARD_JONES] p_0/k_B:  40.39730 [K], p_1: 3.49534 [A], shift/k_B:  -0.09862790 [K], tailcorrection: no
 CH_SP2 -     N46 [LENNARD_JONES] p_0/k_B:  40.39730 [K], p_1: 3.49534 [A], shift/k_B:  -0.09862790 [K], tailcorrection: no
 CH_SP2 -     N43 [LENNARD_JONES] p_0/k_B:  40.39730 [K], p_1: 3.49534 [A], shift/k_B:  -0.09862790 [K], tailcorrection: no
 CH_SP2 -     N44 [LENNARD_JONES] p_0/k_B:  40.39730 [K], p_1: 3.49534 [A], shift/k_B:  -0.09862790 [K], tailcorrection: no
 CH_SP2 -     N41 [LENNARD_JONES] p_0/k_B:  40.39730 [K], p_1: 3.49534 [A], shift/k_B:  -0.09862790 [K], tailcorrection: no
 CH_SP2 -     N42 [LENNARD_JONES] p_0/k_B:  40.39730 [K], p_1: 3.49534 [A], shift/k_B:  -0.09862790 [K], tailcorrection: no
 CH_SP2 -     N39 [LENNARD_JONES] p_0/k_B:  40.39730 [K], p_1: 3.49534 [A], shift/k_B:  -0.09862790 [K], tailcorrection: no
 CH_SP2 -     N40 [LENNARD_JONES] p_0/k_B:  40.39730 [K], p_1: 3.49534 [A], shift/k_B:  -0.09862790 [K], tailcorrection: no
 CH_SP2 -     N37 [LENNARD_JONES] p_0/k_B:  40.39730 [K], p_1: 3.49534 [A], shift/k_B:  -0.09862790 [K], tailcorrection: no
 CH_SP2 -     N38 [LENNARD_JONES] p_0/k_B:  40.39730 [K], p_1: 3.49534 [A], shift/k_B:  -0.09862790 [K], tailcorrection: no
 CH_SP2 -     N35 [LENNARD_JONES] p_0/k_B:  40.39730 [K], p_1: 3.49534 [A], shift/k_B:  -0.09862790 [K], tailcorrection: no
 CH_SP2 -     N36 [LENNARD_JONES] p_0/k_B:  40.39730 [K], p_1: 3.49534 [A], shift/k_B:  -0.09862790 [K], tailcorrection: no
 CH_SP2 -     N33 [LENNARD_JONES] p_0/k_B:  40.39730 [K], p_1: 3.49534 [A], shift/k_B:  -0.09862790 [K], tailcorrection: no
 CH_SP2 -     N34 [LENNARD_JONES] p_0/k_B:  40.39730 [K], p_1: 3.49534 [A], shift/k_B:  -0.09862790 [K], tailcorrection: no
 CH_SP2 -     N31 [LENNARD_JONES] p_0/k_B:  40.39730 [K], p_1: 3.49534 [A], shift/k_B:  -0.09862790 [K], tailcorrection: no
 CH_SP2 -     N32 [LENNARD_JONES] p_0/k_B:  40.39730 [K], p_1: 3.49534 [A], shift/k_B:  -0.09862790 [K], tailcorrection: no
 CH_SP2 -     N29 [LENNARD_JONES] p_0/k_B:  40.39730 [K], p_1: 3.49534 [A], shift/k_B:  -0.09862790 [K], tailcorrection: no
 CH_SP2 -     N30 [LENNARD_JONES] p_0/k_B:  40.39730 [K], p_1: 3.49534 [A], shift/k_B:  -0.09862790 [K], tailcorrection: no
  CH3_A -   CH3_A [LENNARD_JONES] p_0/k_B:  98.00000 [K], p_1: 3.75000 [A], shift/k_B:  -0.36473844 [K], tailcorrection: no
  CH3_A -   CH2_A [LENNARD_JONES] p_0/k_B:  67.14164 [K], p_1: 3.85000 [A], shift/k_B:  -0.29258694 [K], tailcorrection: no
  CH3_A -     Cd5 [LENNARD_JONES] p_0/k_B: 106.03741 [K], p_1: 3.14364 [A], shift/k_B:  -0.13705285 [K], tailcorrection: no
  CH3_A -    Cd12 [LENNARD_JONES] p_0/k_B: 106.03741 [K], p_1: 3.14364 [A], shift/k_B:  -0.13705285 [K], tailcorrection: no
  CH3_A -    Cd19 [LENNARD_JONES] p_0/k_B: 106.03741 [K], p_1: 3.14364 [A], shift/k_B:  -0.13705285 [K], tailcorrection: no
  CH3_A -    Cd26 [LENNARD_JONES] p_0/k_B: 106.03741 [K], p_1: 3.14364 [A], shift/k_B:  -0.13705285 [K], tailcorrection: no
  CH3_A -     N51 [LENNARD_JONES] p_0/k_B:  58.33328 [K], p_1: 3.50535 [A], shift/k_B:  -0.14487839 [K], tailcorrection: no
  CH3_A -     N52 [LENNARD_JONES] p_0/k_B:  58.33328 [K], p_1: 3.50535 [A], shift/k_B:  -0.14487839 [K], tailcorrection: no
  CH3_A -     N49 [LENNARD_JONES] p_0/k_B:  58.33328 [K], p_1: 3.50535 [A], shift/k_B:  -0.14487839 [K], tailcorrection: no
  CH3_A -     N50 [LENNARD_JONES] p_0/k_B:  58.33328 [K], p_1: 3.50535 [A], shift/k_B:  -0.14487839 [K], tailcorrection: no
  CH3_A -     N47 [LENNARD_JONES] p_0/k_B:  58.33328 [K], p_1: 3.50535 [A], shift/k_B:  -0.14487839 [K], tailcorrection: no
  CH3_A -     N48 [LENNARD_JONES] p_0/k_B:  58.33328 [K], p_1: 3.50535 [A], shift/k_B:  -0.14487839 [K], tailcorrection: no
  CH3_A -     N45 [LENNARD_JONES] p_0/k_B:  58.33328 [K], p_1: 3.50535 [A], shift/k_B:  -0.14487839 [K], tailcorrection: no
  CH3_A -     N46 [LENNARD_JONES] p_0/k_B:  58.33328 [K], p_1: 3.50535 [A], shift/k_B:  -0.14487839 [K], tailcorrection: no
  CH3_A -     N43 [LENNARD_JONES] p_0/k_B:  58.33328 [K], p_1: 3.50535 [A], shift/k_B:  -0.14487839 [K], tailcorrection: no
  CH3_A -     N44 [LENNARD_JONES] p_0/k_B:  58.33328 [K], p_1: 3.50535 [A], shift/k_B:  -0.14487839 [K], tailcorrection: no
  CH3_A -     N41 [LENNARD_JONES] p_0/k_B:  58.33328 [K], p_1: 3.50535 [A], shift/k_B:  -0.14487839 [K], tailcorrection: no
  CH3_A -     N42 [LENNARD_JONES] p_0/k_B:  58.33328 [K], p_1: 3.50535 [A], shift/k_B:  -0.14487839 [K], tailcorrection: no
  CH3_A -     N39 [LENNARD_JONES] p_0/k_B:  58.33328 [K], p_1: 3.50535 [A], shift/k_B:  -0.14487839 [K], tailcorrection: no
  CH3_A -     N40 [LENNARD_JONES] p_0/k_B:  58.33328 [K], p_1: 3.50535 [A], shift/k_B:  -0.14487839 [K], tailcorrection: no
  CH3_A -     N37 [LENNARD_JONES] p_0/k_B:  58.33328 [K], p_1: 3.50535 [A], shift/k_B:  -0.14487839 [K], tailcorrection: no
  CH3_A -     N38 [LENNARD_JONES] p_0/k_B:  58.33328 [K], p_1: 3.50535 [A], shift/k_B:  -0.14487839 [K], tailcorrection: no
  CH3_A -     N35 [LENNARD_JONES] p_0/k_B:  58.33328 [K], p_1: 3.50535 [A], shift/k_B:  -0.14487839 [K], tailcorrection: no
  CH3_A -     N36 [LENNARD_JONES] p_0/k_B:  58.33328 [K], p_1: 3.50535 [A], shift/k_B:  -0.14487839 [K], tailcorrection: no
  CH3_A -     N33 [LENNARD_JONES] p_0/k_B:  58.33328 [K], p_1: 3.50535 [A], shift/k_B:  -0.14487839 [K], tailcorrection: no
  CH3_A -     N34 [LENNARD_JONES] p_0/k_B:  58.33328 [K], p_1: 3.50535 [A], shift/k_B:  -0.14487839 [K], tailcorrection: no
  CH3_A -     N31 [LENNARD_JONES] p_0/k_B:  58.33328 [K], p_1: 3.50535 [A], shift/k_B:  -0.14487839 [K], tailcorrection: no
  CH3_A -     N32 [LENNARD_JONES] p_0/k_B:  58.33328 [K], p_1: 3.50535 [A], shift/k_B:  -0.14487839 [K], tailcorrection: no
  CH3_A -     N29 [LENNARD_JONES] p_0/k_B:  58.33328 [K], p_1: 3.50535 [A], shift/k_B:  -0.14487839 [K], tailcorrection: no
  CH3_A -     N30 [LENNARD_JONES] p_0/k_B:  58.33328 [K], p_1: 3.50535 [A], shift/k_B:  -0.14487839 [K], tailcorrection: no
  CH2_A -   CH2_A [LENNARD_JONES] p_0/k_B:  46.00000 [K], p_1: 3.95000 [A], shift/k_B:  -0.23375458 [K], tailcorrection: no
  CH2_A -     Cd5 [LENNARD_JONES] p_0/k_B:  72.64822 [K], p_1: 3.24364 [A], shift/k_B:  -0.11329845 [K], tailcorrection: no
  CH2_A -    Cd12 [LENNARD_JONES] p_0/k_B:  72.64822 [K], p_1: 3.24364 [A], shift/k_B:  -0.11329845 [K], tailcorrection: no
  CH2_A -    Cd19 [LENNARD_JONES] p_0/k_B:  72.64822 [K], p_1: 3.24364 [A], shift/k_B:  -0.11329845 [K], tailcorrection: no
  CH2_A -    Cd26 [LENNARD_JONES] p_0/k_B:  72.64822 [K], p_1: 3.24364 [A], shift/k_B:  -0.11329845 [K], tailcorrection: no
  CH2_A -     N51 [LENNARD_JONES] p_0/k_B:  39.96523 [K], p_1: 3.60534 [A], shift/k_B:  -0.11749414 [K], tailcorrection: no
  CH2_A -     N52 [LENNARD_JONES] p_0/k_B:  39.96523 [K], p_1: 3.60534 [A], shift/k_B:  -0.11749414 [K], tailcorrection: no
  CH2_A -     N49 [LENNARD_JONES] p_0/k_B:  39.96523 [K], p_1: 3.60534 [A], shift/k_B:  -0.11749414 [K], tailcorrection: no
  CH2_A -     N50 [LENNARD_JONES] p_0/k_B:  39.96523 [K], p_1: 3.60534 [A], shift/k_B:  -0.11749414 [K], tailcorrection: no
  CH2_A -     N47 [LENNARD_JONES] p_0/k_B:  39.96523 [K], p_1: 3.60534 [A], shift/k_B:  -0.11749414 [K], tailcorrection: no
  CH2_A -     N48 [LENNARD_JONES] p_0/k_B:  39.96523 [K], p_1: 3.60534 [A], shift/k_B:  -0.11749414 [K], tailcorrection: no
  CH2_A -     N45 [LENNARD_JONES] p_0/k_B:  39.96523 [K], p_1: 3.60534 [A], shift/k_B:  -0.11749414 [K], tailcorrection: no
  CH2_A -     N46 [LENNARD_JONES] p_0/k_B:  39.96523 [K], p_1: 3.60534 [A], shift/k_B:  -0.11749414 [K], tailcorrection: no
  CH2_A -     N43 [LENNARD_JONES] p_0/k_B:  39.96523 [K], p_1: 3.60534 [A], shift/k_B:  -0.11749414 [K], tailcorrection: no
  CH2_A -     N44 [LENNARD_JONES] p_0/k_B:  39.96523 [K], p_1: 3.60534 [A], shift/k_B:  -0.11749414 [K], tailcorrection: no
  CH2_A -     N41 [LENNARD_JONES] p_0/k_B:  39.96523 [K], p_1: 3.60534 [A], shift/k_B:  -0.11749414 [K], tailcorrection: no
  CH2_A -     N42 [LENNARD_JONES] p_0/k_B:  39.96523 [K], p_1: 3.60534 [A], shift/k_B:  -0.11749414 [K], tailcorrection: no
  CH2_A -     N39 [LENNARD_JONES] p_0/k_B:  39.96523 [K], p_1: 3.60534 [A], shift/k_B:  -0.11749414 [K], tailcorrection: no
  CH2_A -     N40 [LENNARD_JONES] p_0/k_B:  39.96523 [K], p_1: 3.60534 [A], shift/k_B:  -0.11749414 [K], tailcorrection: no
  CH2_A -     N37 [LENNARD_JONES] p_0/k_B:  39.96523 [K], p_1: 3.60534 [A], shift/k_B:  -0.11749414 [K], tailcorrection: no
  CH2_A -     N38 [LENNARD_JONES] p_0/k_B:  39.96523 [K], p_1: 3.60534 [A], shift/k_B:  -0.11749414 [K], tailcorrection: no
  CH2_A -     N35 [LENNARD_JONES] p_0/k_B:  39.96523 [K], p_1: 3.60534 [A], shift/k_B:  -0.11749414 [K], tailcorrection: no
  CH2_A -     N36 [LENNARD_JONES] p_0/k_B:  39.96523 [K], p_1: 3.60534 [A], shift/k_B:  -0.11749414 [K], tailcorrection: no
  CH2_A -     N33 [LENNARD_JONES] p_0/k_B:  39.96523 [K], p_1: 3.60534 [A], shift/k_B:  -0.11749414 [K], tailcorrection: no
  CH2_A -     N34 [LENNARD_JONES] p_0/k_B:  39.96523 [K], p_1: 3.60534 [A], shift/k_B:  -0.11749414 [K], tailcorrection: no
  CH2_A -     N31 [LENNARD_JONES] p_0/k_B:  39.96523 [K], p_1: 3.60534 [A], shift/k_B:  -0.11749414 [K], tailcorrection: no
  CH2_A -     N32 [LENNARD_JONES] p_0/k_B:  39.96523 [K], p_1: 3.60534 [A], shift/k_B:  -0.11749414 [K], tailcorrection: no
  CH2_A -     N29 [LENNARD_JONES] p_0/k_B:  39.96523 [K], p_1: 3.60534 [A], shift/k_B:  -0.11749414 [K], tailcorrection: no
  CH2_A -     N30 [LENNARD_JONES] p_0/k_B:  39.96523 [K], p_1: 3.60534 [A], shift/k_B:  -0.11749414 [K], tailcorrection: no
    Cd5 -     Cd5 [LENNARD_JONES] p_0/k_B: 114.73400 [K], p_1: 2.53728 [A], shift/k_B:  -0.04100494 [K], tailcorrection: no
    Cd5 -    Cd12 [LENNARD_JONES] p_0/k_B: 114.73400 [K], p_1: 2.53728 [A], shift/k_B:  -0.04100494 [K], tailcorrection: no
    Cd5 -    Cd19 [LENNARD_JONES] p_0/k_B: 114.73400 [K], p_1: 2.53728 [A], shift/k_B:  -0.04100494 [K], tailcorrection: no
    Cd5 -    Cd26 [LENNARD_JONES] p_0/k_B: 114.73400 [K], p_1: 2.53728 [A], shift/k_B:  -0.04100494 [K], tailcorrection: no
    Cd5 -     N51 [LENNARD_JONES] p_0/k_B:  63.11745 [K], p_1: 2.89898 [A], shift/k_B:  -0.05017778 [K], tailcorrection: no
    Cd5 -     N52 [LENNARD_JONES] p_0/k_B:  63.11745 [K], p_1: 2.89898 [A], shift/k_B:  -0.05017778 [K], tailcorrection: no
    Cd5 -     N49 [LENNARD_JONES] p_0/k_B:  63.11745 [K], p_1: 2.89898 [A], shift/k_B:  -0.05017778 [K], tailcorrection: no
    Cd5 -     N50 [LENNARD_JONES] p_0/k_B:  63.11745 [K], p_1: 2.89898 [A], shift/k_B:  -0.05017778 [K], tailcorrection: no
    Cd5 -     N47 [LENNARD_JONES] p_0/k_B:  63.11745 [K], p_1: 2.89898 [A], shift/k_B:  -0.05017778 [K], tailcorrection: no
    Cd5 -     N48 [LENNARD_JONES] p_0/k_B:  63.11745 [K], p_1: 2.89898 [A], shift/k_B:  -0.05017778 [K], tailcorrection: no
    Cd5 -     N45 [LENNARD_JONES] p_0/k_B:  63.11745 [K], p_1: 2.89898 [A], shift/k_B:  -0.05017778 [K], tailcorrection: no
    Cd5 -     N46 [LENNARD_JONES] p_0/k_B:  63.11745 [K], p_1: 2.89898 [A], shift/k_B:  -0.05017778 [K], tailcorrection: no
    Cd5 -     N43 [LENNARD_JONES] p_0/k_B:  63.11745 [K], p_1: 2.89898 [A], shift/k_B:  -0.05017778 [K], tailcorrection: no
    Cd5 -     N44 [LENNARD_JONES] p_0/k_B:  63.11745 [K], p_1: 2.89898 [A], shift/k_B:  -0.05017778 [K], tailcorrection: no
    Cd5 -     N41 [LENNARD_JONES] p_0/k_B:  63.11745 [K], p_1: 2.89898 [A], shift/k_B:  -0.05017778 [K], tailcorrection: no
    Cd5 -     N42 [LENNARD_JONES] p_0/k_B:  63.11745 [K], p_1: 2.89898 [A], shift/k_B:  -0.05017778 [K], tailcorrection: no
    Cd5 -     N39 [LENNARD_JONES] p_0/k_B:  63.11745 [K], p_1: 2.89898 [A], shift/k_B:  -0.05017778 [K], tailcorrection: no
    Cd5 -     N40 [LENNARD_JONES] p_0/k_B:  63.11745 [K], p_1: 2.89898 [A], shift/k_B:  -0.05017778 [K], tailcorrection: no
    Cd5 -     N37 [LENNARD_JONES] p_0/k_B:  63.11745 [K], p_1: 2.89898 [A], shift/k_B:  -0.05017778 [K], tailcorrection: no
    Cd5 -     N38 [LENNARD_JONES] p_0/k_B:  63.11745 [K], p_1: 2.89898 [A], shift/k_B:  -0.05017778 [K], tailcorrection: no
    Cd5 -     N35 [LENNARD_JONES] p_0/k_B:  63.11745 [K], p_1: 2.89898 [A], shift/k_B:  -0.05017778 [K], tailcorrection: no
    Cd5 -     N36 [LENNARD_JONES] p_0/k_B:  63.11745 [K], p_1: 2.89898 [A], shift/k_B:  -0.05017778 [K], tailcorrection: no
    Cd5 -     N33 [LENNARD_JONES] p_0/k_B:  63.11745 [K], p_1: 2.89898 [A], shift/k_B:  -0.05017778 [K], tailcorrection: no
    Cd5 -     N34 [LENNARD_JONES] p_0/k_B:  63.11745 [K], p_1: 2.89898 [A], shift/k_B:  -0.05017778 [K], tailcorrection: no
    Cd5 -     N31 [LENNARD_JONES] p_0/k_B:  63.11745 [K], p_1: 2.89898 [A], shift/k_B:  -0.05017778 [K], tailcorrection: no
    Cd5 -     N32 [LENNARD_JONES] p_0/k_B:  63.11745 [K], p_1: 2.89898 [A], shift/k_B:  -0.05017778 [K], tailcorrection: no
    Cd5 -     N29 [LENNARD_JONES] p_0/k_B:  63.11745 [K], p_1: 2.89898 [A], shift/k_B:  -0.05017778 [K], tailcorrection: no
    Cd5 -     N30 [LENNARD_JONES] p_0/k_B:  63.11745 [K], p_1: 2.89898 [A], shift/k_B:  -0.05017778 [K], tailcorrection: no
   Cd12 -    Cd12 [LENNARD_JONES] p_0/k_B: 114.73400 [K], p_1: 2.53728 [A], shift/k_B:  -0.04100494 [K], tailcorrection: no
   Cd12 -    Cd19 [LENNARD_JONES] p_0/k_B: 114.73400 [K], p_1: 2.53728 [A], shift/k_B:  -0.04100494 [K], tailcorrection: no
   Cd12 -    Cd26 [LENNARD_JONES] p_0/k_B: 114.73400 [K], p_1: 2.53728 [A], shift/k_B:  -0.04100494 [K], tailcorrection: no
   Cd12 -     N51 [LENNARD_JONES] p_0/k_B:  63.11745 [K], p_1: 2.89898 [A], shift/k_B:  -0.05017778 [K], tailcorrection: no
   Cd12 -     N52 [LENNARD_JONES] p_0/k_B:  63.11745 [K], p_1: 2.89898 [A], shift/k_B:  -0.05017778 [K], tailcorrection: no
   Cd12 -     N49 [LENNARD_JONES] p_0/k_B:  63.11745 [K], p_1: 2.89898 [A], shift/k_B:  -0.05017778 [K], tailcorrection: no
   Cd12 -     N50 [LENNARD_JONES] p_0/k_B:  63.11745 [K], p_1: 2.89898 [A], shift/k_B:  -0.05017778 [K], tailcorrection: no
   Cd12 -     N47 [LENNARD_JONES] p_0/k_B:  63.11745 [K], p_1: 2.89898 [A], shift/k_B:  -0.05017778 [K], tailcorrection: no
   Cd12 -     N48 [LENNARD_JONES] p_0/k_B:  63.11745 [K], p_1: 2.89898 [A], shift/k_B:  -0.05017778 [K], tailcorrection: no
   Cd12 -     N45 [LENNARD_JONES] p_0/k_B:  63.11745 [K], p_1: 2.89898 [A], shift/k_B:  -0.05017778 [K], tailcorrection: no
   Cd12 -     N46 [LENNARD_JONES] p_0/k_B:  63.11745 [K], p_1: 2.89898 [A], shift/k_B:  -0.05017778 [K], tailcorrection: no
   Cd12 -     N43 [LENNARD_JONES] p_0/k_B:  63.11745 [K], p_1: 2.89898 [A], shift/k_B:  -0.05017778 [K], tailcorrection: no
   Cd12 -     N44 [LENNARD_JONES] p_0/k_B:  63.11745 [K], p_1: 2.89898 [A], shift/k_B:  -0.05017778 [K], tailcorrection: no
   Cd12 -     N41 [LENNARD_JONES] p_0/k_B:  63.11745 [K], p_1: 2.89898 [A], shift/k_B:  -0.05017778 [K], tailcorrection: no
   Cd12 -     N42 [LENNARD_JONES] p_0/k_B:  63.11745 [K], p_1: 2.89898 [A], shift/k_B:  -0.05017778 [K], tailcorrection: no
   Cd12 -     N39 [LENNARD_JONES] p_0/k_B:  63.11745 [K], p_1: 2.89898 [A], shift/k_B:  -0.05017778 [K], tailcorrection: no
   Cd12 -     N40 [LENNARD_JONES] p_0/k_B:  63.11745 [K], p_1: 2.89898 [A], shift/k_B:  -0.05017778 [K], tailcorrection: no
   Cd12 -     N37 [LENNARD_JONES] p_0/k_B:  63.11745 [K], p_1: 2.89898 [A], shift/k_B:  -0.05017778 [K], tailcorrection: no
   Cd12 -     N38 [LENNARD_JONES] p_0/k_B:  63.11745 [K], p_1: 2.89898 [A], shift/k_B:  -0.05017778 [K], tailcorrection: no
   Cd12 -     N35 [LENNARD_JONES] p_0/k_B:  63.11745 [K], p_1: 2.89898 [A], shift/k_B:  -0.05017778 [K], tailcorrection: no
   Cd12 -     N36 [LENNARD_JONES] p_0/k_B:  63.11745 [K], p_1: 2.89898 [A], shift/k_B:  -0.05017778 [K], tailcorrection: no
   Cd12 -     N33 [LENNARD_JONES] p_0/k_B:  63.11745 [K], p_1: 2.89898 [A], shift/k_B:  -0.05017778 [K], tailcorrection: no
   Cd12 -     N34 [LENNARD_JONES] p_0/k_B:  63.11745 [K], p_1: 2.89898 [A], shift/k_B:  -0.05017778 [K], tailcorrection: no
   Cd12 -     N31 [LENNARD_JONES] p_0/k_B:  63.11745 [K], p_1: 2.89898 [A], shift/k_B:  -0.05017778 [K], tailcorrection: no
   Cd12 -     N32 [LENNARD_JONES] p_0/k_B:  63.11745 [K], p_1: 2.89898 [A], shift/k_B:  -0.05017778 [K], tailcorrection: no
   Cd12 -     N29 [LENNARD_JONES] p_0/k_B:  63.11745 [K], p_1: 2.89898 [A], shift/k_B:  -0.05017778 [K], tailcorrection: no
   Cd12 -     N30 [LENNARD_JONES] p_0/k_B:  63.11745 [K], p_1: 2.89898 [A], shift/k_B:  -0.05017778 [K], tailcorrection: no
   Cd19 -    Cd19 [LENNARD_JONES] p_0/k_B: 114.73400 [K], p_1: 2.53728 [A], shift/k_B:  -0.04100494 [K], tailcorrection: no
   Cd19 -    Cd26 [LENNARD_JONES] p_0/k_B: 114.73400 [K], p_1: 2.53728 [A], shift/k_B:  -0.04100494 [K], tailcorrection: no
   Cd19 -     N51 [LENNARD_JONES] p_0/k_B:  63.11745 [K], p_1: 2.89898 [A], shift/k_B:  -0.05017778 [K], tailcorrection: no
   Cd19 -     N52 [LENNARD_JONES] p_0/k_B:  63.11745 [K], p_1: 2.89898 [A], shift/k_B:  -0.05017778 [K], tailcorrection: no
   Cd19 -     N49 [LENNARD_JONES] p_0/k_B:  63.11745 [K], p_1: 2.89898 [A], shift/k_B:  -0.05017778 [K], tailcorrection: no
   Cd19 -     N50 [LENNARD_JONES] p_0/k_B:  63.11745 [K], p_1: 2.89898 [A], shift/k_B:  -0.05017778 [K], tailcorrection: no
   Cd19 -     N47 [LENNARD_JONES] p_0/k_B:  63.11745 [K], p_1: 2.89898 [A], shift/k_B:  -0.05017778 [K], tailcorrection: no
   Cd19 -     N48 [LENNARD_JONES] p_0/k_B:  63.11745 [K], p_1: 2.89898 [A], shift/k_B:  -0.05017778 [K], tailcorrection: no
   Cd19 -     N45 [LENNARD_JONES] p_0/k_B:  63.11745 [K], p_1: 2.89898 [A], shift/k_B:  -0.05017778 [K], tailcorrection: no
   Cd19 -     N46 [LENNARD_JONES] p_0/k_B:  63.11745 [K], p_1: 2.89898 [A], shift/k_B:  -0.05017778 [K], tailcorrection: no
   Cd19 -     N43 [LENNARD_JONES] p_0/k_B:  63.11745 [K], p_1: 2.89898 [A], shift/k_B:  -0.05017778 [K], tailcorrection: no
   Cd19 -     N44 [LENNARD_JONES] p_0/k_B:  63.11745 [K], p_1: 2.89898 [A], shift/k_B:  -0.05017778 [K], tailcorrection: no
   Cd19 -     N41 [LENNARD_JONES] p_0/k_B:  63.11745 [K], p_1: 2.89898 [A], shift/k_B:  -0.05017778 [K], tailcorrection: no
   Cd19 -     N42 [LENNARD_JONES] p_0/k_B:  63.11745 [K], p_1: 2.89898 [A], shift/k_B:  -0.05017778 [K], tailcorrection: no
   Cd19 -     N39 [LENNARD_JONES] p_0/k_B:  63.11745 [K], p_1: 2.89898 [A], shift/k_B:  -0.05017778 [K], tailcorrection: no
   Cd19 -     N40 [LENNARD_JONES] p_0/k_B:  63.11745 [K], p_1: 2.89898 [A], shift/k_B:  -0.05017778 [K], tailcorrection: no
   Cd19 -     N37 [LENNARD_JONES] p_0/k_B:  63.11745 [K], p_1: 2.89898 [A], shift/k_B:  -0.05017778 [K], tailcorrection: no
   Cd19 -     N38 [LENNARD_JONES] p_0/k_B:  63.11745 [K], p_1: 2.89898 [A], shift/k_B:  -0.05017778 [K], tailcorrection: no
   Cd19 -     N35 [LENNARD_JONES] p_0/k_B:  63.11745 [K], p_1: 2.89898 [A], shift/k_B:  -0.05017778 [K], tailcorrection: no
   Cd19 -     N36 [LENNARD_JONES] p_0/k_B:  63.11745 [K], p_1: 2.89898 [A], shift/k_B:  -0.05017778 [K], tailcorrection: no
   Cd19 -     N33 [LENNARD_JONES] p_0/k_B:  63.11745 [K], p_1: 2.89898 [A], shift/k_B:  -0.05017778 [K], tailcorrection: no
   Cd19 -     N34 [LENNARD_JONES] p_0/k_B:  63.11745 [K], p_1: 2.89898 [A], shift/k_B:  -0.05017778 [K], tailcorrection: no
   Cd19 -     N31 [LENNARD_JONES] p_0/k_B:  63.11745 [K], p_1: 2.89898 [A], shift/k_B:  -0.05017778 [K], tailcorrection: no
   Cd19 -     N32 [LENNARD_JONES] p_0/k_B:  63.11745 [K], p_1: 2.89898 [A], shift/k_B:  -0.05017778 [K], tailcorrection: no
   Cd19 -     N29 [LENNARD_JONES] p_0/k_B:  63.11745 [K], p_1: 2.89898 [A], shift/k_B:  -0.05017778 [K], tailcorrection: no
   Cd19 -     N30 [LENNARD_JONES] p_0/k_B:  63.11745 [K], p_1: 2.89898 [A], shift/k_B:  -0.05017778 [K], tailcorrection: no
   Cd26 -    Cd26 [LENNARD_JONES] p_0/k_B: 114.73400 [K], p_1: 2.53728 [A], shift/k_B:  -0.04100494 [K], tailcorrection: no
   Cd26 -     N51 [LENNARD_JONES] p_0/k_B:  63.11745 [K], p_1: 2.89898 [A], shift/k_B:  -0.05017778 [K], tailcorrection: no
   Cd26 -     N52 [LENNARD_JONES] p_0/k_B:  63.11745 [K], p_1: 2.89898 [A], shift/k_B:  -0.05017778 [K], tailcorrection: no
   Cd26 -     N49 [LENNARD_JONES] p_0/k_B:  63.11745 [K], p_1: 2.89898 [A], shift/k_B:  -0.05017778 [K], tailcorrection: no
   Cd26 -     N50 [LENNARD_JONES] p_0/k_B:  63.11745 [K], p_1: 2.89898 [A], shift/k_B:  -0.05017778 [K], tailcorrection: no
   Cd26 -     N47 [LENNARD_JONES] p_0/k_B:  63.11745 [K], p_1: 2.89898 [A], shift/k_B:  -0.05017778 [K], tailcorrection: no
   Cd26 -     N48 [LENNARD_JONES] p_0/k_B:  63.11745 [K], p_1: 2.89898 [A], shift/k_B:  -0.05017778 [K], tailcorrection: no
   Cd26 -     N45 [LENNARD_JONES] p_0/k_B:  63.11745 [K], p_1: 2.89898 [A], shift/k_B:  -0.05017778 [K], tailcorrection: no
   Cd26 -     N46 [LENNARD_JONES] p_0/k_B:  63.11745 [K], p_1: 2.89898 [A], shift/k_B:  -0.05017778 [K], tailcorrection: no
   Cd26 -     N43 [LENNARD_JONES] p_0/k_B:  63.11745 [K], p_1: 2.89898 [A], shift/k_B:  -0.05017778 [K], tailcorrection: no
   Cd26 -     N44 [LENNARD_JONES] p_0/k_B:  63.11745 [K], p_1: 2.89898 [A], shift/k_B:  -0.05017778 [K], tailcorrection: no
   Cd26 -     N41 [LENNARD_JONES] p_0/k_B:  63.11745 [K], p_1: 2.89898 [A], shift/k_B:  -0.05017778 [K], tailcorrection: no
   Cd26 -     N42 [LENNARD_JONES] p_0/k_B:  63.11745 [K], p_1: 2.89898 [A], shift/k_B:  -0.05017778 [K], tailcorrection: no
   Cd26 -     N39 [LENNARD_JONES] p_0/k_B:  63.11745 [K], p_1: 2.89898 [A], shift/k_B:  -0.05017778 [K], tailcorrection: no
   Cd26 -     N40 [LENNARD_JONES] p_0/k_B:  63.11745 [K], p_1: 2.89898 [A], shift/k_B:  -0.05017778 [K], tailcorrection: no
   Cd26 -     N37 [LENNARD_JONES] p_0/k_B:  63.11745 [K], p_1: 2.89898 [A], shift/k_B:  -0.05017778 [K], tailcorrection: no
   Cd26 -     N38 [LENNARD_JONES] p_0/k_B:  63.11745 [K], p_1: 2.89898 [A], shift/k_B:  -0.05017778 [K], tailcorrection: no
   Cd26 -     N35 [LENNARD_JONES] p_0/k_B:  63.11745 [K], p_1: 2.89898 [A], shift/k_B:  -0.05017778 [K], tailcorrection: no
   Cd26 -     N36 [LENNARD_JONES] p_0/k_B:  63.11745 [K], p_1: 2.89898 [A], shift/k_B:  -0.05017778 [K], tailcorrection: no
   Cd26 -     N33 [LENNARD_JONES] p_0/k_B:  63.11745 [K], p_1: 2.89898 [A], shift/k_B:  -0.05017778 [K], tailcorrection: no
   Cd26 -     N34 [LENNARD_JONES] p_0/k_B:  63.11745 [K], p_1: 2.89898 [A], shift/k_B:  -0.05017778 [K], tailcorrection: no
   Cd26 -     N31 [LENNARD_JONES] p_0/k_B:  63.11745 [K], p_1: 2.89898 [A], shift/k_B:  -0.05017778 [K], tailcorrection: no
   Cd26 -     N32 [LENNARD_JONES] p_0/k_B:  63.11745 [K], p_1: 2.89898 [A], shift/k_B:  -0.05017778 [K], tailcorrection: no
   Cd26 -     N29 [LENNARD_JONES] p_0/k_B:  63.11745 [K], p_1: 2.89898 [A], shift/k_B:  -0.05017778 [K], tailcorrection: no
   Cd26 -     N30 [LENNARD_JONES] p_0/k_B:  63.11745 [K], p_1: 2.89898 [A], shift/k_B:  -0.05017778 [K], tailcorrection: no
    N51 -     N51 [LENNARD_JONES] p_0/k_B:  34.72216 [K], p_1: 3.26069 [A], shift/k_B:  -0.05588065 [K], tailcorrection: no
    N51 -     N52 [LENNARD_JONES] p_0/k_B:  34.72216 [K], p_1: 3.26069 [A], shift/k_B:  -0.05588065 [K], tailcorrection: no
    N51 -     N49 [LENNARD_JONES] p_0/k_B:  34.72216 [K], p_1: 3.26069 [A], shift/k_B:  -0.05588065 [K], tailcorrection: no
    N51 -     N50 [LENNARD_JONES] p_0/k_B:  34.72216 [K], p_1: 3.26069 [A], shift/k_B:  -0.05588065 [K], tailcorrection: no
    N51 -     N47 [LENNARD_JONES] p_0/k_B:  34.72216 [K], p_1: 3.26069 [A], shift/k_B:  -0.05588065 [K], tailcorrection: no
    N51 -     N48 [LENNARD_JONES] p_0/k_B:  34.72216 [K], p_1: 3.26069 [A], shift/k_B:  -0.05588065 [K], tailcorrection: no
    N51 -     N45 [LENNARD_JONES] p_0/k_B:  34.72216 [K], p_1: 3.26069 [A], shift/k_B:  -0.05588065 [K], tailcorrection: no
    N51 -     N46 [LENNARD_JONES] p_0/k_B:  34.72216 [K], p_1: 3.26069 [A], shift/k_B:  -0.05588065 [K], tailcorrection: no
    N51 -     N43 [LENNARD_JONES] p_0/k_B:  34.72216 [K], p_1: 3.26069 [A], shift/k_B:  -0.05588065 [K], tailcorrection: no
    N51 -     N44 [LENNARD_JONES] p_0/k_B:  34.72216 [K], p_1: 3.26069 [A], shift/k_B:  -0.05588065 [K], tailcorrection: no
    N51 -     N41 [LENNARD_JONES] p_0/k_B:  34.72216 [K], p_1: 3.26069 [A], shift/k_B:  -0.05588065 [K], tailcorrection: no
    N51 -     N42 [LENNARD_JONES] p_0/k_B:  34.72216 [K], p_1: 3.26069 [A], shift/k_B:  -0.05588065 [K], tailcorrection: no
    N51 -     N39 [LENNARD_JONES] p_0/k_B:  34.72216 [K], p_1: 3.26069 [A], shift/k_B:  -0.05588065 [K], tailcorrection: no
    N51 -     N40 [LENNARD_JONES] p_0/k_B:  34.72216 [K], p_1: 3.26069 [A], shift/k_B:  -0.05588065 [K], tailcorrection: no
    N51 -     N37 [LENNARD_JONES] p_0/k_B:  34.72216 [K], p_1: 3.26069 [A], shift/k_B:  -0.05588065 [K], tailcorrection: no
    N51 -     N38 [LENNARD_JONES] p_0/k_B:  34.72216 [K], p_1: 3.26069 [A], shift/k_B:  -0.05588065 [K], tailcorrection: no
    N51 -     N35 [LENNARD_JONES] p_0/k_B:  34.72216 [K], p_1: 3.26069 [A], shift/k_B:  -0.05588065 [K], tailcorrection: no
    N51 -     N36 [LENNARD_JONES] p_0/k_B:  34.72216 [K], p_1: 3.26069 [A], shift/k_B:  -0.05588065 [K], tailcorrection: no
    N51 -     N33 [LENNARD_JONES] p_0/k_B:  34.72216 [K], p_1: 3.26069 [A], shift/k_B:  -0.05588065 [K], tailcorrection: no
    N51 -     N34 [LENNARD_JONES] p_0/k_B:  34.72216 [K], p_1: 3.26069 [A], shift/k_B:  -0.05588065 [K], tailcorrection: no
    N51 -     N31 [LENNARD_JONES] p_0/k_B:  34.72216 [K], p_1: 3.26069 [A], shift/k_B:  -0.05588065 [K], tailcorrection: no
    N51 -     N32 [LENNARD_JONES] p_0/k_B:  34.72216 [K], p_1: 3.26069 [A], shift/k_B:  -0.05588065 [K], tailcorrection: no
    N51 -     N29 [LENNARD_JONES] p_0/k_B:  34.72216 [K], p_1: 3.26069 [A], shift/k_B:  -0.05588065 [K], tailcorrection: no
    N51 -     N30 [LENNARD_JONES] p_0/k_B:  34.72216 [K], p_1: 3.26069 [A], shift/k_B:  -0.05588065 [K], tailcorrection: no
    N52 -     N52 [LENNARD_JONES] p_0/k_B:  34.72216 [K], p_1: 3.26069 [A], shift/k_B:  -0.05588065 [K], tailcorrection: no
    N52 -     N49 [LENNARD_JONES] p_0/k_B:  34.72216 [K], p_1: 3.26069 [A], shift/k_B:  -0.05588065 [K], tailcorrection: no
    N52 -     N50 [LENNARD_JONES] p_0/k_B:  34.72216 [K], p_1: 3.26069 [A], shift/k_B:  -0.05588065 [K], tailcorrection: no
    N52 -     N47 [LENNARD_JONES] p_0/k_B:  34.72216 [K], p_1: 3.26069 [A], shift/k_B:  -0.05588065 [K], tailcorrection: no
    N52 -     N48 [LENNARD_JONES] p_0/k_B:  34.72216 [K], p_1: 3.26069 [A], shift/k_B:  -0.05588065 [K], tailcorrection: no
    N52 -     N45 [LENNARD_JONES] p_0/k_B:  34.72216 [K], p_1: 3.26069 [A], shift/k_B:  -0.05588065 [K], tailcorrection: no
    N52 -     N46 [LENNARD_JONES] p_0/k_B:  34.72216 [K], p_1: 3.26069 [A], shift/k_B:  -0.05588065 [K], tailcorrection: no
    N52 -     N43 [LENNARD_JONES] p_0/k_B:  34.72216 [K], p_1: 3.26069 [A], shift/k_B:  -0.05588065 [K], tailcorrection: no
    N52 -     N44 [LENNARD_JONES] p_0/k_B:  34.72216 [K], p_1: 3.26069 [A], shift/k_B:  -0.05588065 [K], tailcorrection: no
    N52 -     N41 [LENNARD_JONES] p_0/k_B:  34.72216 [K], p_1: 3.26069 [A], shift/k_B:  -0.05588065 [K], tailcorrection: no
    N52 -     N42 [LENNARD_JONES] p_0/k_B:  34.72216 [K], p_1: 3.26069 [A], shift/k_B:  -0.05588065 [K], tailcorrection: no
    N52 -     N39 [LENNARD_JONES] p_0/k_B:  34.72216 [K], p_1: 3.26069 [A], shift/k_B:  -0.05588065 [K], tailcorrection: no
    N52 -     N40 [LENNARD_JONES] p_0/k_B:  34.72216 [K], p_1: 3.26069 [A], shift/k_B:  -0.05588065 [K], tailcorrection: no
    N52 -     N37 [LENNARD_JONES] p_0/k_B:  34.72216 [K], p_1: 3.26069 [A], shift/k_B:  -0.05588065 [K], tailcorrection: no
    N52 -     N38 [LENNARD_JONES] p_0/k_B:  34.72216 [K], p_1: 3.26069 [A], shift/k_B:  -0.05588065 [K], tailcorrection: no
    N52 -     N35 [LENNARD_JONES] p_0/k_B:  34.72216 [K], p_1: 3.26069 [A], shift/k_B:  -0.05588065 [K], tailcorrection: no
    N52 -     N36 [LENNARD_JONES] p_0/k_B:  34.72216 [K], p_1: 3.26069 [A], shift/k_B:  -0.05588065 [K], tailcorrection: no
    N52 -     N33 [LENNARD_JONES] p_0/k_B:  34.72216 [K], p_1: 3.26069 [A], shift/k_B:  -0.05588065 [K], tailcorrection: no
    N52 -     N34 [LENNARD_JONES] p_0/k_B:  34.72216 [K], p_1: 3.26069 [A], shift/k_B:  -0.05588065 [K], tailcorrection: no
    N52 -     N31 [LENNARD_JONES] p_0/k_B:  34.72216 [K], p_1: 3.26069 [A], shift/k_B:  -0.05588065 [K], tailcorrection: no
    N52 -     N32 [LENNARD_JONES] p_0/k_B:  34.72216 [K], p_1: 3.26069 [A], shift/k_B:  -0.05588065 [K], tailcorrection: no
    N52 -     N29 [LENNARD_JONES] p_0/k_B:  34.72216 [K], p_1: 3.26069 [A], shift/k_B:  -0.05588065 [K], tailcorrection: no
    N52 -     N30 [LENNARD_JONES] p_0/k_B:  34.72216 [K], p_1: 3.26069 [A], shift/k_B:  -0.05588065 [K], tailcorrection: no
    N49 -     N49 [LENNARD_JONES] p_0/k_B:  34.72216 [K], p_1: 3.26069 [A], shift/k_B:  -0.05588065 [K], tailcorrection: no
    N49 -     N50 [LENNARD_JONES] p_0/k_B:  34.72216 [K], p_1: 3.26069 [A], shift/k_B:  -0.05588065 [K], tailcorrection: no
    N49 -     N47 [LENNARD_JONES] p_0/k_B:  34.72216 [K], p_1: 3.26069 [A], shift/k_B:  -0.05588065 [K], tailcorrection: no
    N49 -     N48 [LENNARD_JONES] p_0/k_B:  34.72216 [K], p_1: 3.26069 [A], shift/k_B:  -0.05588065 [K], tailcorrection: no
    N49 -     N45 [LENNARD_JONES] p_0/k_B:  34.72216 [K], p_1: 3.26069 [A], shift/k_B:  -0.05588065 [K], tailcorrection: no
    N49 -     N46 [LENNARD_JONES] p_0/k_B:  34.72216 [K], p_1: 3.26069 [A], shift/k_B:  -0.05588065 [K], tailcorrection: no
    N49 -     N43 [LENNARD_JONES] p_0/k_B:  34.72216 [K], p_1: 3.26069 [A], shift/k_B:  -0.05588065 [K], tailcorrection: no
    N49 -     N44 [LENNARD_JONES] p_0/k_B:  34.72216 [K], p_1: 3.26069 [A], shift/k_B:  -0.05588065 [K], tailcorrection: no
    N49 -     N41 [LENNARD_JONES] p_0/k_B:  34.72216 [K], p_1: 3.26069 [A], shift/k_B:  -0.05588065 [K], tailcorrection: no
    N49 -     N42 [LENNARD_JONES] p_0/k_B:  34.72216 [K], p_1: 3.26069 [A], shift/k_B:  -0.05588065 [K], tailcorrection: no
    N49 -     N39 [LENNARD_JONES] p_0/k_B:  34.72216 [K], p_1: 3.26069 [A], shift/k_B:  -0.05588065 [K], tailcorrection: no
    N49 -     N40 [LENNARD_JONES] p_0/k_B:  34.72216 [K], p_1: 3.26069 [A], shift/k_B:  -0.05588065 [K], tailcorrection: no
    N49 -     N37 [LENNARD_JONES] p_0/k_B:  34.72216 [K], p_1: 3.26069 [A], shift/k_B:  -0.05588065 [K], tailcorrection: no
    N49 -     N38 [LENNARD_JONES] p_0/k_B:  34.72216 [K], p_1: 3.26069 [A], shift/k_B:  -0.05588065 [K], tailcorrection: no
    N49 -     N35 [LENNARD_JONES] p_0/k_B:  34.72216 [K], p_1: 3.26069 [A], shift/k_B:  -0.05588065 [K], tailcorrection: no
    N49 -     N36 [LENNARD_JONES] p_0/k_B:  34.72216 [K], p_1: 3.26069 [A], shift/k_B:  -0.05588065 [K], tailcorrection: no
    N49 -     N33 [LENNARD_JONES] p_0/k_B:  34.72216 [K], p_1: 3.26069 [A], shift/k_B:  -0.05588065 [K], tailcorrection: no
    N49 -     N34 [LENNARD_JONES] p_0/k_B:  34.72216 [K], p_1: 3.26069 [A], shift/k_B:  -0.05588065 [K], tailcorrection: no
    N49 -     N31 [LENNARD_JONES] p_0/k_B:  34.72216 [K], p_1: 3.26069 [A], shift/k_B:  -0.05588065 [K], tailcorrection: no
    N49 -     N32 [LENNARD_JONES] p_0/k_B:  34.72216 [K], p_1: 3.26069 [A], shift/k_B:  -0.05588065 [K], tailcorrection: no
    N49 -     N29 [LENNARD_JONES] p_0/k_B:  34.72216 [K], p_1: 3.26069 [A], shift/k_B:  -0.05588065 [K], tailcorrection: no
    N49 -     N30 [LENNARD_JONES] p_0/k_B:  34.72216 [K], p_1: 3.26069 [A], shift/k_B:  -0.05588065 [K], tailcorrection: no
    N50 -     N50 [LENNARD_JONES] p_0/k_B:  34.72216 [K], p_1: 3.26069 [A], shift/k_B:  -0.05588065 [K], tailcorrection: no
    N50 -     N47 [LENNARD_JONES] p_0/k_B:  34.72216 [K], p_1: 3.26069 [A], shift/k_B:  -0.05588065 [K], tailcorrection: no
    N50 -     N48 [LENNARD_JONES] p_0/k_B:  34.72216 [K], p_1: 3.26069 [A], shift/k_B:  -0.05588065 [K], tailcorrection: no
    N50 -     N45 [LENNARD_JONES] p_0/k_B:  34.72216 [K], p_1: 3.26069 [A], shift/k_B:  -0.05588065 [K], tailcorrection: no
    N50 -     N46 [LENNARD_JONES] p_0/k_B:  34.72216 [K], p_1: 3.26069 [A], shift/k_B:  -0.05588065 [K], tailcorrection: no
    N50 -     N43 [LENNARD_JONES] p_0/k_B:  34.72216 [K], p_1: 3.26069 [A], shift/k_B:  -0.05588065 [K], tailcorrection: no
    N50 -     N44 [LENNARD_JONES] p_0/k_B:  34.72216 [K], p_1: 3.26069 [A], shift/k_B:  -0.05588065 [K], tailcorrection: no
    N50 -     N41 [LENNARD_JONES] p_0/k_B:  34.72216 [K], p_1: 3.26069 [A], shift/k_B:  -0.05588065 [K], tailcorrection: no
    N50 -     N42 [LENNARD_JONES] p_0/k_B:  34.72216 [K], p_1: 3.26069 [A], shift/k_B:  -0.05588065 [K], tailcorrection: no
    N50 -     N39 [LENNARD_JONES] p_0/k_B:  34.72216 [K], p_1: 3.26069 [A], shift/k_B:  -0.05588065 [K], tailcorrection: no
    N50 -     N40 [LENNARD_JONES] p_0/k_B:  34.72216 [K], p_1: 3.26069 [A], shift/k_B:  -0.05588065 [K], tailcorrection: no
    N50 -     N37 [LENNARD_JONES] p_0/k_B:  34.72216 [K], p_1: 3.26069 [A], shift/k_B:  -0.05588065 [K], tailcorrection: no
    N50 -     N38 [LENNARD_JONES] p_0/k_B:  34.72216 [K], p_1: 3.26069 [A], shift/k_B:  -0.05588065 [K], tailcorrection: no
    N50 -     N35 [LENNARD_JONES] p_0/k_B:  34.72216 [K], p_1: 3.26069 [A], shift/k_B:  -0.05588065 [K], tailcorrection: no
    N50 -     N36 [LENNARD_JONES] p_0/k_B:  34.72216 [K], p_1: 3.26069 [A], shift/k_B:  -0.05588065 [K], tailcorrection: no
    N50 -     N33 [LENNARD_JONES] p_0/k_B:  34.72216 [K], p_1: 3.26069 [A], shift/k_B:  -0.05588065 [K], tailcorrection: no
    N50 -     N34 [LENNARD_JONES] p_0/k_B:  34.72216 [K], p_1: 3.26069 [A], shift/k_B:  -0.05588065 [K], tailcorrection: no
    N50 -     N31 [LENNARD_JONES] p_0/k_B:  34.72216 [K], p_1: 3.26069 [A], shift/k_B:  -0.05588065 [K], tailcorrection: no
    N50 -     N32 [LENNARD_JONES] p_0/k_B:  34.72216 [K], p_1: 3.26069 [A], shift/k_B:  -0.05588065 [K], tailcorrection: no
    N50 -     N29 [LENNARD_JONES] p_0/k_B:  34.72216 [K], p_1: 3.26069 [A], shift/k_B:  -0.05588065 [K], tailcorrection: no
    N50 -     N30 [LENNARD_JONES] p_0/k_B:  34.72216 [K], p_1: 3.26069 [A], shift/k_B:  -0.05588065 [K], tailcorrection: no
    N47 -     N47 [LENNARD_JONES] p_0/k_B:  34.72216 [K], p_1: 3.26069 [A], shift/k_B:  -0.05588065 [K], tailcorrection: no
    N47 -     N48 [LENNARD_JONES] p_0/k_B:  34.72216 [K], p_1: 3.26069 [A], shift/k_B:  -0.05588065 [K], tailcorrection: no
    N47 -     N45 [LENNARD_JONES] p_0/k_B:  34.72216 [K], p_1: 3.26069 [A], shift/k_B:  -0.05588065 [K], tailcorrection: no
    N47 -     N46 [LENNARD_JONES] p_0/k_B:  34.72216 [K], p_1: 3.26069 [A], shift/k_B:  -0.05588065 [K], tailcorrection: no
    N47 -     N43 [LENNARD_JONES] p_0/k_B:  34.72216 [K], p_1: 3.26069 [A], shift/k_B:  -0.05588065 [K], tailcorrection: no
    N47 -     N44 [LENNARD_JONES] p_0/k_B:  34.72216 [K], p_1: 3.26069 [A], shift/k_B:  -0.05588065 [K], tailcorrection: no
    N47 -     N41 [LENNARD_JONES] p_0/k_B:  34.72216 [K], p_1: 3.26069 [A], shift/k_B:  -0.05588065 [K], tailcorrection: no
    N47 -     N42 [LENNARD_JONES] p_0/k_B:  34.72216 [K], p_1: 3.26069 [A], shift/k_B:  -0.05588065 [K], tailcorrection: no
    N47 -     N39 [LENNARD_JONES] p_0/k_B:  34.72216 [K], p_1: 3.26069 [A], shift/k_B:  -0.05588065 [K], tailcorrection: no
    N47 -     N40 [LENNARD_JONES] p_0/k_B:  34.72216 [K], p_1: 3.26069 [A], shift/k_B:  -0.05588065 [K], tailcorrection: no
    N47 -     N37 [LENNARD_JONES] p_0/k_B:  34.72216 [K], p_1: 3.26069 [A], shift/k_B:  -0.05588065 [K], tailcorrection: no
    N47 -     N38 [LENNARD_JONES] p_0/k_B:  34.72216 [K], p_1: 3.26069 [A], shift/k_B:  -0.05588065 [K], tailcorrection: no
    N47 -     N35 [LENNARD_JONES] p_0/k_B:  34.72216 [K], p_1: 3.26069 [A], shift/k_B:  -0.05588065 [K], tailcorrection: no
    N47 -     N36 [LENNARD_JONES] p_0/k_B:  34.72216 [K], p_1: 3.26069 [A], shift/k_B:  -0.05588065 [K], tailcorrection: no
    N47 -     N33 [LENNARD_JONES] p_0/k_B:  34.72216 [K], p_1: 3.26069 [A], shift/k_B:  -0.05588065 [K], tailcorrection: no
    N47 -     N34 [LENNARD_JONES] p_0/k_B:  34.72216 [K], p_1: 3.26069 [A], shift/k_B:  -0.05588065 [K], tailcorrection: no
    N47 -     N31 [LENNARD_JONES] p_0/k_B:  34.72216 [K], p_1: 3.26069 [A], shift/k_B:  -0.05588065 [K], tailcorrection: no
    N47 -     N32 [LENNARD_JONES] p_0/k_B:  34.72216 [K], p_1: 3.26069 [A], shift/k_B:  -0.05588065 [K], tailcorrection: no
    N47 -     N29 [LENNARD_JONES] p_0/k_B:  34.72216 [K], p_1: 3.26069 [A], shift/k_B:  -0.05588065 [K], tailcorrection: no
    N47 -     N30 [LENNARD_JONES] p_0/k_B:  34.72216 [K], p_1: 3.26069 [A], shift/k_B:  -0.05588065 [K], tailcorrection: no
    N48 -     N48 [LENNARD_JONES] p_0/k_B:  34.72216 [K], p_1: 3.26069 [A], shift/k_B:  -0.05588065 [K], tailcorrection: no
    N48 -     N45 [LENNARD_JONES] p_0/k_B:  34.72216 [K], p_1: 3.26069 [A], shift/k_B:  -0.05588065 [K], tailcorrection: no
    N48 -     N46 [LENNARD_JONES] p_0/k_B:  34.72216 [K], p_1: 3.26069 [A], shift/k_B:  -0.05588065 [K], tailcorrection: no
    N48 -     N43 [LENNARD_JONES] p_0/k_B:  34.72216 [K], p_1: 3.26069 [A], shift/k_B:  -0.05588065 [K], tailcorrection: no
    N48 -     N44 [LENNARD_JONES] p_0/k_B:  34.72216 [K], p_1: 3.26069 [A], shift/k_B:  -0.05588065 [K], tailcorrection: no
    N48 -     N41 [LENNARD_JONES] p_0/k_B:  34.72216 [K], p_1: 3.26069 [A], shift/k_B:  -0.05588065 [K], tailcorrection: no
    N48 -     N42 [LENNARD_JONES] p_0/k_B:  34.72216 [K], p_1: 3.26069 [A], shift/k_B:  -0.05588065 [K], tailcorrection: no
    N48 -     N39 [LENNARD_JONES] p_0/k_B:  34.72216 [K], p_1: 3.26069 [A], shift/k_B:  -0.05588065 [K], tailcorrection: no
    N48 -     N40 [LENNARD_JONES] p_0/k_B:  34.72216 [K], p_1: 3.26069 [A], shift/k_B:  -0.05588065 [K], tailcorrection: no
    N48 -     N37 [LENNARD_JONES] p_0/k_B:  34.72216 [K], p_1: 3.26069 [A], shift/k_B:  -0.05588065 [K], tailcorrection: no
    N48 -     N38 [LENNARD_JONES] p_0/k_B:  34.72216 [K], p_1: 3.26069 [A], shift/k_B:  -0.05588065 [K], tailcorrection: no
    N48 -     N35 [LENNARD_JONES] p_0/k_B:  34.72216 [K], p_1: 3.26069 [A], shift/k_B:  -0.05588065 [K], tailcorrection: no
    N48 -     N36 [LENNARD_JONES] p_0/k_B:  34.72216 [K], p_1: 3.26069 [A], shift/k_B:  -0.05588065 [K], tailcorrection: no
    N48 -     N33 [LENNARD_JONES] p_0/k_B:  34.72216 [K], p_1: 3.26069 [A], shift/k_B:  -0.05588065 [K], tailcorrection: no
    N48 -     N34 [LENNARD_JONES] p_0/k_B:  34.72216 [K], p_1: 3.26069 [A], shift/k_B:  -0.05588065 [K], tailcorrection: no
    N48 -     N31 [LENNARD_JONES] p_0/k_B:  34.72216 [K], p_1: 3.26069 [A], shift/k_B:  -0.05588065 [K], tailcorrection: no
    N48 -     N32 [LENNARD_JONES] p_0/k_B:  34.72216 [K], p_1: 3.26069 [A], shift/k_B:  -0.05588065 [K], tailcorrection: no
    N48 -     N29 [LENNARD_JONES] p_0/k_B:  34.72216 [K], p_1: 3.26069 [A], shift/k_B:  -0.05588065 [K], tailcorrection: no
    N48 -     N30 [LENNARD_JONES] p_0/k_B:  34.72216 [K], p_1: 3.26069 [A], shift/k_B:  -0.05588065 [K], tailcorrection: no
    N45 -     N45 [LENNARD_JONES] p_0/k_B:  34.72216 [K], p_1: 3.26069 [A], shift/k_B:  -0.05588065 [K], tailcorrection: no
    N45 -     N46 [LENNARD_JONES] p_0/k_B:  34.72216 [K], p_1: 3.26069 [A], shift/k_B:  -0.05588065 [K], tailcorrection: no
    N45 -     N43 [LENNARD_JONES] p_0/k_B:  34.72216 [K], p_1: 3.26069 [A], shift/k_B:  -0.05588065 [K], tailcorrection: no
    N45 -     N44 [LENNARD_JONES] p_0/k_B:  34.72216 [K], p_1: 3.26069 [A], shift/k_B:  -0.05588065 [K], tailcorrection: no
    N45 -     N41 [LENNARD_JONES] p_0/k_B:  34.72216 [K], p_1: 3.26069 [A], shift/k_B:  -0.05588065 [K], tailcorrection: no
    N45 -     N42 [LENNARD_JONES] p_0/k_B:  34.72216 [K], p_1: 3.26069 [A], shift/k_B:  -0.05588065 [K], tailcorrection: no
    N45 -     N39 [LENNARD_JONES] p_0/k_B:  34.72216 [K], p_1: 3.26069 [A], shift/k_B:  -0.05588065 [K], tailcorrection: no
    N45 -     N40 [LENNARD_JONES] p_0/k_B:  34.72216 [K], p_1: 3.26069 [A], shift/k_B:  -0.05588065 [K], tailcorrection: no
    N45 -     N37 [LENNARD_JONES] p_0/k_B:  34.72216 [K], p_1: 3.26069 [A], shift/k_B:  -0.05588065 [K], tailcorrection: no
    N45 -     N38 [LENNARD_JONES] p_0/k_B:  34.72216 [K], p_1: 3.26069 [A], shift/k_B:  -0.05588065 [K], tailcorrection: no
    N45 -     N35 [LENNARD_JONES] p_0/k_B:  34.72216 [K], p_1: 3.26069 [A], shift/k_B:  -0.05588065 [K], tailcorrection: no
    N45 -     N36 [LENNARD_JONES] p_0/k_B:  34.72216 [K], p_1: 3.26069 [A], shift/k_B:  -0.05588065 [K], tailcorrection: no
    N45 -     N33 [LENNARD_JONES] p_0/k_B:  34.72216 [K], p_1: 3.26069 [A], shift/k_B:  -0.05588065 [K], tailcorrection: no
    N45 -     N34 [LENNARD_JONES] p_0/k_B:  34.72216 [K], p_1: 3.26069 [A], shift/k_B:  -0.05588065 [K], tailcorrection: no
    N45 -     N31 [LENNARD_JONES] p_0/k_B:  34.72216 [K], p_1: 3.26069 [A], shift/k_B:  -0.05588065 [K], tailcorrection: no
    N45 -     N32 [LENNARD_JONES] p_0/k_B:  34.72216 [K], p_1: 3.26069 [A], shift/k_B:  -0.05588065 [K], tailcorrection: no
    N45 -     N29 [LENNARD_JONES] p_0/k_B:  34.72216 [K], p_1: 3.26069 [A], shift/k_B:  -0.05588065 [K], tailcorrection: no
    N45 -     N30 [LENNARD_JONES] p_0/k_B:  34.72216 [K], p_1: 3.26069 [A], shift/k_B:  -0.05588065 [K], tailcorrection: no
    N46 -     N46 [LENNARD_JONES] p_0/k_B:  34.72216 [K], p_1: 3.26069 [A], shift/k_B:  -0.05588065 [K], tailcorrection: no
    N46 -     N43 [LENNARD_JONES] p_0/k_B:  34.72216 [K], p_1: 3.26069 [A], shift/k_B:  -0.05588065 [K], tailcorrection: no
    N46 -     N44 [LENNARD_JONES] p_0/k_B:  34.72216 [K], p_1: 3.26069 [A], shift/k_B:  -0.05588065 [K], tailcorrection: no
    N46 -     N41 [LENNARD_JONES] p_0/k_B:  34.72216 [K], p_1: 3.26069 [A], shift/k_B:  -0.05588065 [K], tailcorrection: no
    N46 -     N42 [LENNARD_JONES] p_0/k_B:  34.72216 [K], p_1: 3.26069 [A], shift/k_B:  -0.05588065 [K], tailcorrection: no
    N46 -     N39 [LENNARD_JONES] p_0/k_B:  34.72216 [K], p_1: 3.26069 [A], shift/k_B:  -0.05588065 [K], tailcorrection: no
    N46 -     N40 [LENNARD_JONES] p_0/k_B:  34.72216 [K], p_1: 3.26069 [A], shift/k_B:  -0.05588065 [K], tailcorrection: no
    N46 -     N37 [LENNARD_JONES] p_0/k_B:  34.72216 [K], p_1: 3.26069 [A], shift/k_B:  -0.05588065 [K], tailcorrection: no
    N46 -     N38 [LENNARD_JONES] p_0/k_B:  34.72216 [K], p_1: 3.26069 [A], shift/k_B:  -0.05588065 [K], tailcorrection: no
    N46 -     N35 [LENNARD_JONES] p_0/k_B:  34.72216 [K], p_1: 3.26069 [A], shift/k_B:  -0.05588065 [K], tailcorrection: no
    N46 -     N36 [LENNARD_JONES] p_0/k_B:  34.72216 [K], p_1: 3.26069 [A], shift/k_B:  -0.05588065 [K], tailcorrection: no
    N46 -     N33 [LENNARD_JONES] p_0/k_B:  34.72216 [K], p_1: 3.26069 [A], shift/k_B:  -0.05588065 [K], tailcorrection: no
    N46 -     N34 [LENNARD_JONES] p_0/k_B:  34.72216 [K], p_1: 3.26069 [A], shift/k_B:  -0.05588065 [K], tailcorrection: no
    N46 -     N31 [LENNARD_JONES] p_0/k_B:  34.72216 [K], p_1: 3.26069 [A], shift/k_B:  -0.05588065 [K], tailcorrection: no
    N46 -     N32 [LENNARD_JONES] p_0/k_B:  34.72216 [K], p_1: 3.26069 [A], shift/k_B:  -0.05588065 [K], tailcorrection: no
    N46 -     N29 [LENNARD_JONES] p_0/k_B:  34.72216 [K], p_1: 3.26069 [A], shift/k_B:  -0.05588065 [K], tailcorrection: no
    N46 -     N30 [LENNARD_JONES] p_0/k_B:  34.72216 [K], p_1: 3.26069 [A], shift/k_B:  -0.05588065 [K], tailcorrection: no
    N43 -     N43 [LENNARD_JONES] p_0/k_B:  34.72216 [K], p_1: 3.26069 [A], shift/k_B:  -0.05588065 [K], tailcorrection: no
    N43 -     N44 [LENNARD_JONES] p_0/k_B:  34.72216 [K], p_1: 3.26069 [A], shift/k_B:  -0.05588065 [K], tailcorrection: no
    N43 -     N41 [LENNARD_JONES] p_0/k_B:  34.72216 [K], p_1: 3.26069 [A], shift/k_B:  -0.05588065 [K], tailcorrection: no
    N43 -     N42 [LENNARD_JONES] p_0/k_B:  34.72216 [K], p_1: 3.26069 [A], shift/k_B:  -0.05588065 [K], tailcorrection: no
    N43 -     N39 [LENNARD_JONES] p_0/k_B:  34.72216 [K], p_1: 3.26069 [A], shift/k_B:  -0.05588065 [K], tailcorrection: no
    N43 -     N40 [LENNARD_JONES] p_0/k_B:  34.72216 [K], p_1: 3.26069 [A], shift/k_B:  -0.05588065 [K], tailcorrection: no
    N43 -     N37 [LENNARD_JONES] p_0/k_B:  34.72216 [K], p_1: 3.26069 [A], shift/k_B:  -0.05588065 [K], tailcorrection: no
    N43 -     N38 [LENNARD_JONES] p_0/k_B:  34.72216 [K], p_1: 3.26069 [A], shift/k_B:  -0.05588065 [K], tailcorrection: no
    N43 -     N35 [LENNARD_JONES] p_0/k_B:  34.72216 [K], p_1: 3.26069 [A], shift/k_B:  -0.05588065 [K], tailcorrection: no
    N43 -     N36 [LENNARD_JONES] p_0/k_B:  34.72216 [K], p_1: 3.26069 [A], shift/k_B:  -0.05588065 [K], tailcorrection: no
    N43 -     N33 [LENNARD_JONES] p_0/k_B:  34.72216 [K], p_1: 3.26069 [A], shift/k_B:  -0.05588065 [K], tailcorrection: no
    N43 -     N34 [LENNARD_JONES] p_0/k_B:  34.72216 [K], p_1: 3.26069 [A], shift/k_B:  -0.05588065 [K], tailcorrection: no
    N43 -     N31 [LENNARD_JONES] p_0/k_B:  34.72216 [K], p_1: 3.26069 [A], shift/k_B:  -0.05588065 [K], tailcorrection: no
    N43 -     N32 [LENNARD_JONES] p_0/k_B:  34.72216 [K], p_1: 3.26069 [A], shift/k_B:  -0.05588065 [K], tailcorrection: no
    N43 -     N29 [LENNARD_JONES] p_0/k_B:  34.72216 [K], p_1: 3.26069 [A], shift/k_B:  -0.05588065 [K], tailcorrection: no
    N43 -     N30 [LENNARD_JONES] p_0/k_B:  34.72216 [K], p_1: 3.26069 [A], shift/k_B:  -0.05588065 [K], tailcorrection: no
    N44 -     N44 [LENNARD_JONES] p_0/k_B:  34.72216 [K], p_1: 3.26069 [A], shift/k_B:  -0.05588065 [K], tailcorrection: no
    N44 -     N41 [LENNARD_JONES] p_0/k_B:  34.72216 [K], p_1: 3.26069 [A], shift/k_B:  -0.05588065 [K], tailcorrection: no
    N44 -     N42 [LENNARD_JONES] p_0/k_B:  34.72216 [K], p_1: 3.26069 [A], shift/k_B:  -0.05588065 [K], tailcorrection: no
    N44 -     N39 [LENNARD_JONES] p_0/k_B:  34.72216 [K], p_1: 3.26069 [A], shift/k_B:  -0.05588065 [K], tailcorrection: no
    N44 -     N40 [LENNARD_JONES] p_0/k_B:  34.72216 [K], p_1: 3.26069 [A], shift/k_B:  -0.05588065 [K], tailcorrection: no
    N44 -     N37 [LENNARD_JONES] p_0/k_B:  34.72216 [K], p_1: 3.26069 [A], shift/k_B:  -0.05588065 [K], tailcorrection: no
    N44 -     N38 [LENNARD_JONES] p_0/k_B:  34.72216 [K], p_1: 3.26069 [A], shift/k_B:  -0.05588065 [K], tailcorrection: no
[...]
	Block[ 3]            0.00000 [K]
	Block[ 4]            0.00000 [K]
	------------------------------------------------------------------------------
	Average              0.00000 [K] +/-            0.00000 [K]

Average Cation Bend angle inversion energy:
===========================================
	Block[ 0]            0.00000 [K]
	Block[ 1]            0.00000 [K]
	Block[ 2]            0.00000 [K]
	Block[ 3]            0.00000 [K]
	Block[ 4]            0.00000 [K]
	------------------------------------------------------------------------------
	Average              0.00000 [K] +/-            0.00000 [K]

Average Cation Torsion energy:
==============================
	Block[ 0]            0.00000 [K]
	Block[ 1]            0.00000 [K]
	Block[ 2]            0.00000 [K]
	Block[ 3]            0.00000 [K]
	Block[ 4]            0.00000 [K]
	------------------------------------------------------------------------------
	Average              0.00000 [K] +/-            0.00000 [K]

Average Cation Improper Torsion energy:
=======================================
	Block[ 0]            0.00000 [K]
	Block[ 1]            0.00000 [K]
	Block[ 2]            0.00000 [K]
	Block[ 3]            0.00000 [K]
	Block[ 4]            0.00000 [K]
	------------------------------------------------------------------------------
	Average              0.00000 [K] +/-            0.00000 [K]

Average Cation Bond-Bond cross term energy:
=================================================
	Block[ 0]            0.00000 [K]
	Block[ 1]            0.00000 [K]
	Block[ 2]            0.00000 [K]
	Block[ 3]            0.00000 [K]
	Block[ 4]            0.00000 [K]
	------------------------------------------------------------------------------
	Average              0.00000 [K] +/-            0.00000 [K]

Average Cation Bend-Bend cross term energy:
===========================================
	Block[ 0]            0.00000 [K]
	Block[ 1]            0.00000 [K]
	Block[ 2]            0.00000 [K]
	Block[ 3]            0.00000 [K]
	Block[ 4]            0.00000 [K]
	------------------------------------------------------------------------------
	Average              0.00000 [K] +/-            0.00000 [K]

Average Cation Bond-Bend cross term energy:
==============================================
	Block[ 0]            0.00000 [K]
	Block[ 1]            0.00000 [K]
	Block[ 2]            0.00000 [K]
	Block[ 3]            0.00000 [K]
	Block[ 4]            0.00000 [K]
	------------------------------------------------------------------------------
	Average              0.00000 [K] +/-            0.00000 [K]

Average Cation Bond-Torsion cross term energy:
==============================================
	Block[ 0]            0.00000 [K]
	Block[ 1]            0.00000 [K]
	Block[ 2]            0.00000 [K]
	Block[ 3]            0.00000 [K]
	Block[ 4]            0.00000 [K]
	------------------------------------------------------------------------------
	Average              0.00000 [K] +/-            0.00000 [K]

Average Cation Bend-Torsion cross term energy:
==============================================
	Block[ 0]            0.00000 [K]
	Block[ 1]            0.00000 [K]
	Block[ 2]            0.00000 [K]
	Block[ 3]            0.00000 [K]
	Block[ 4]            0.00000 [K]
	------------------------------------------------------------------------------
	Average              0.00000 [K] +/-            0.00000 [K]

Average Cation Intra Van der Waals energy:
==========================================
	Block[ 0]            0.00000 [K]
	Block[ 1]            0.00000 [K]
	Block[ 2]            0.00000 [K]
	Block[ 3]            0.00000 [K]
	Block[ 4]            0.00000 [K]
	------------------------------------------------------------------------------
	Average              0.00000 [K] +/-            0.00000 [K]

Average Cation Intra charge-charge Coulomb energy:
====================================
	Block[ 0]            0.00000 [K]
	Block[ 1]            0.00000 [K]
	Block[ 2]            0.00000 [K]
	Block[ 3]            0.00000 [K]
	Block[ 4]            0.00000 [K]
	------------------------------------------------------------------------------
	Average              0.00000 [K] +/-            0.00000 [K]

Average Cation Intra charge-bonddipole Coulomb energy:
====================================
	Block[ 0]            0.00000 [K]
	Block[ 1]            0.00000 [K]
	Block[ 2]            0.00000 [K]
	Block[ 3]            0.00000 [K]
	Block[ 4]            0.00000 [K]
	------------------------------------------------------------------------------
	Average              0.00000 [K] +/-            0.00000 [K]

Average Cation Intra bonddipole-bonddipole Coulomb energy:
====================================
	Block[ 0]            0.00000 [K]
	Block[ 1]            0.00000 [K]
	Block[ 2]            0.00000 [K]
	Block[ 3]            0.00000 [K]
	Block[ 4]            0.00000 [K]
	------------------------------------------------------------------------------
	Average              0.00000 [K] +/-            0.00000 [K]

Average Host-Host energy:
=========================
	Block[ 0] 0.00000            Van der Waals: 0.00000            Coulomb: 0.00000            [K]
	Block[ 1] 0.00000            Van der Waals: 0.00000            Coulomb: 0.00000            [K]
	Block[ 2] 0.00000            Van der Waals: 0.00000            Coulomb: 0.00000            [K]
	Block[ 3] 0.00000            Van der Waals: 0.00000            Coulomb: 0.00000            [K]
	Block[ 4] 0.00000            Van der Waals: 0.00000            Coulomb: 0.00000            [K]
	------------------------------------------------------------------------------
	Average   0.00000            Van der Waals: 0.000000           Coulomb: 0.00000            [K]
	      +/- 0.00000                       +/- 0.000000                +/- 0.00000            [K]

Average Adsorbate-Adsorbate energy:
===================================
	Block[ 0] -5926.47853        Van der Waals: -5926.47853        Coulomb: 0.00000            [K]
	Block[ 1] -6403.79979        Van der Waals: -6403.79979        Coulomb: 0.00000            [K]
	Block[ 2] -6262.50331        Van der Waals: -6262.50331        Coulomb: 0.00000            [K]
	Block[ 3] -6384.94178        Van der Waals: -6384.94178        Coulomb: 0.00000            [K]
	Block[ 4] -6008.12580        Van der Waals: -6008.12580        Coulomb: 0.00000            [K]
	------------------------------------------------------------------------------
	Average   -6197.16984        Van der Waals: -6197.169841       Coulomb: 0.00000            [K]
	      +/- 271.44833                     +/- 271.448331              +/- 0.00000            [K]

Average Cation-Cation energy:
=============================
	Block[ 0] 0.00000            Van der Waals: 0.00000            Coulomb: 0.00000            [K]
	Block[ 1] 0.00000            Van der Waals: 0.00000            Coulomb: 0.00000            [K]
	Block[ 2] 0.00000            Van der Waals: 0.00000            Coulomb: 0.00000            [K]
	Block[ 3] 0.00000            Van der Waals: 0.00000            Coulomb: 0.00000            [K]
	Block[ 4] 0.00000            Van der Waals: 0.00000            Coulomb: 0.00000            [K]
	------------------------------------------------------------------------------
	Average   0.00000            Van der Waals: 0.000000           Coulomb: 0.00000            [K]
	      +/- 0.00000                       +/- 0.000000                +/- 0.00000            [K]

Average Host-Adsorbate energy:
==============================
	Block[ 0] -84743.06756       Van der Waals: -84743.06756       Coulomb: 0.00000            [K]
	Block[ 1] -87757.93053       Van der Waals: -87757.93053       Coulomb: 0.00000            [K]
	Block[ 2] -86923.13144       Van der Waals: -86923.13144       Coulomb: 0.00000            [K]
	Block[ 3] -87951.98013       Van der Waals: -87951.98013       Coulomb: 0.00000            [K]
	Block[ 4] -84855.25780       Van der Waals: -84855.25780       Coulomb: 0.00000            [K]
	------------------------------------------------------------------------------
	Average   -86446.27349       Van der Waals: -86446.273492      Coulomb: 0.00000            [K]
	      +/- 1927.99461                    +/- 1927.994610             +/- 0.00000            [K]

Average Host-Cation energy:
===========================
	Block[ 0] 0.00000            Van der Waals: 0.00000            Coulomb: 0.00000            [K]
	Block[ 1] 0.00000            Van der Waals: 0.00000            Coulomb: 0.00000            [K]
	Block[ 2] 0.00000            Van der Waals: 0.00000            Coulomb: 0.00000            [K]
	Block[ 3] 0.00000            Van der Waals: 0.00000            Coulomb: 0.00000            [K]
	Block[ 4] 0.00000            Van der Waals: 0.00000            Coulomb: 0.00000            [K]
	------------------------------------------------------------------------------
	Average   0.00000            Van der Waals: 0.000000           Coulomb: 0.00000            [K]
	      +/- 0.00000                       +/- 0.000000                +/- 0.00000            [K]

Average Adsorbate-Cation energy:
================================
	Block[ 0] 0.00000            Van der Waals: 0.00000            Coulomb: 0.00000            [K]
	Block[ 1] 0.00000            Van der Waals: 0.00000            Coulomb: 0.00000            [K]
	Block[ 2] 0.00000            Van der Waals: 0.00000            Coulomb: 0.00000            [K]
	Block[ 3] 0.00000            Van der Waals: 0.00000            Coulomb: 0.00000            [K]
	Block[ 4] 0.00000            Van der Waals: 0.00000            Coulomb: 0.00000            [K]
	------------------------------------------------------------------------------
	Average   0.00000            Van der Waals: 0.000000           Coulomb: 0.00000            [K]
	      +/- 0.00000                       +/- 0.000000                +/- 0.00000            [K]

Host polarization energy:
=======================
	Block[ 0]            0.00000 [K]
	Block[ 1]            0.00000 [K]
	Block[ 2]            0.00000 [K]
	Block[ 3]            0.00000 [K]
	Block[ 4]            0.00000 [K]
	------------------------------------------------------------------------------
	Average              0.00000 [K] +/-            0.00000 [K]

Adsorbate polarization energy:
=======================
	Block[ 0]            0.00000 [K]
	Block[ 1]            0.00000 [K]
	Block[ 2]            0.00000 [K]
	Block[ 3]            0.00000 [K]
	Block[ 4]            0.00000 [K]
	------------------------------------------------------------------------------
	Average              0.00000 [K] +/-            0.00000 [K]

Cation polarization energy:
=======================
	Block[ 0]            0.00000 [K]
	Block[ 1]            0.00000 [K]
	Block[ 2]            0.00000 [K]
	Block[ 3]            0.00000 [K]
	Block[ 4]            0.00000 [K]
	------------------------------------------------------------------------------
	Average              0.00000 [K] +/-            0.00000 [K]

Host back-polarization energy:
=======================
	Block[ 0]            0.00000 [K]
	Block[ 1]            0.00000 [K]
	Block[ 2]            0.00000 [K]
	Block[ 3]            0.00000 [K]
	Block[ 4]            0.00000 [K]
	------------------------------------------------------------------------------
	Average              0.00000 [K] +/-            0.00000 [K]

Adsorbate back-polarization energy:
=======================
	Block[ 0]            0.00000 [K]
	Block[ 1]            0.00000 [K]
	Block[ 2]            0.00000 [K]
	Block[ 3]            0.00000 [K]
	Block[ 4]            0.00000 [K]
	------------------------------------------------------------------------------
	Average              0.00000 [K] +/-            0.00000 [K]

Cation back-polarization energy:
=======================
	Block[ 0]            0.00000 [K]
	Block[ 1]            0.00000 [K]
	Block[ 2]            0.00000 [K]
	Block[ 3]            0.00000 [K]
	Block[ 4]            0.00000 [K]
	------------------------------------------------------------------------------
	Average              0.00000 [K] +/-            0.00000 [K]

Tail-correction energy:
=======================
	Block[ 0]            0.00000 [K]
	Block[ 1]            0.00000 [K]
	Block[ 2]            0.00000 [K]
	Block[ 3]            0.00000 [K]
	Block[ 4]            0.00000 [K]
	------------------------------------------------------------------------------
	Average              0.00000 [K] +/-            0.00000 [K]

Distance-constraints energy:
=======================
	Block[ 0]            0.00000 [K]
	Block[ 1]            0.00000 [K]
	Block[ 2]            0.00000 [K]
	Block[ 3]            0.00000 [K]
	Block[ 4]            0.00000 [K]
	------------------------------------------------------------------------------
	Average              0.00000 [K] +/-            0.00000 [K]

Angle-constraints energy:
=======================
	Block[ 0]            0.00000 [K]
	Block[ 1]            0.00000 [K]
	Block[ 2]            0.00000 [K]
	Block[ 3]            0.00000 [K]
	Block[ 4]            0.00000 [K]
	------------------------------------------------------------------------------
	Average              0.00000 [K] +/-            0.00000 [K]

Dihedral-constraints energy:
=======================
	Block[ 0]            0.00000 [K]
	Block[ 1]            0.00000 [K]
	Block[ 2]            0.00000 [K]
	Block[ 3]            0.00000 [K]
	Block[ 4]            0.00000 [K]
	------------------------------------------------------------------------------
	Average              0.00000 [K] +/-            0.00000 [K]

Inversion-bend constraints energy:
=======================
	Block[ 0]            0.00000 [K]
	Block[ 1]            0.00000 [K]
	Block[ 2]            0.00000 [K]
	Block[ 3]            0.00000 [K]
	Block[ 4]            0.00000 [K]
	------------------------------------------------------------------------------
	Average              0.00000 [K] +/-            0.00000 [K]

Out-of-plane-distance constraints energy:
=======================
	Block[ 0]            0.00000 [K]
	Block[ 1]            0.00000 [K]
	Block[ 2]            0.00000 [K]
	Block[ 3]            0.00000 [K]
	Block[ 4]            0.00000 [K]
	------------------------------------------------------------------------------
	Average              0.00000 [K] +/-            0.00000 [K]

Exclusion-constraints energy:
=======================
	Block[ 0]            0.00000 [K]
	Block[ 1]            0.00000 [K]
	Block[ 2]            0.00000 [K]
	Block[ 3]            0.00000 [K]
	Block[ 4]            0.00000 [K]
	------------------------------------------------------------------------------
	Average              0.00000 [K] +/-            0.00000 [K]

Total energy:
=============
	Block[ 0]       -86062.96222 [K]
	Block[ 1]       -89309.05309 [K]
	Block[ 2]       -88410.38064 [K]
	Block[ 3]       -89319.67444 [K]
	Block[ 4]       -86153.72629 [K]
	------------------------------------------------------------------------------
	Average         -87851.15934 [K] +/-         2027.96700 [K]

Number of molecules:
====================

Component 0 [propene]
-------------------------------------------------------------
	Block[ 0] 31.08905           [-]
	Block[ 1] 32.14545           [-]
	Block[ 2] 31.90950           [-]
	Block[ 3] 32.18590           [-]
	Block[ 4] 31.21465           [-]
	------------------------------------------------------------------------------
	Average loading absolute                             31.7089100000 +/-       0.6471243470 [-]
	Average loading absolute [molecules/unit cell]        1.1744040741 +/-       0.0239675684 [-]
	Average loading absolute [mol/kg framework]                  1.4945195776 +/-       0.0305005756 [-]
	Average loading absolute [milligram/gram framework]         62.8889952504 +/-       1.2834562899 [-]
	Average loading absolute [cm^3 (STP)/gr framework]          33.4981255667 +/-       0.6836391612 [-]
	Average loading absolute [cm^3 (STP)/cm^3 framework]        53.9083167688 +/-       1.1001760795 [-]

	Block[ 0] 30.11988           [-]
	Block[ 1] 31.17628           [-]
	Block[ 2] 30.94033           [-]
	Block[ 3] 31.21673           [-]
	Block[ 4] 30.24548           [-]
	------------------------------------------------------------------------------
	Average loading excess                             30.7397357230 +/-       0.6471243470 [-]
	Average loading excess [molecules/unit cell]        1.1385087305 +/-       0.0239675684 [-]
	Average loading excess [mol/kg framework]                    1.4488399900 +/-       0.0305005756 [-]
	Average loading excess [milligram/gram framework]           60.9668100820 +/-       1.2834562899 [-]
	Average loading excess [cm^3 (STP)/gr framework]            32.4742643987 +/-       0.6836391612 [-]
	Average loading excess [cm^3 (STP)/cm^3 framework]          52.2606236147 +/-       1.1001760795 [-]


Average Widom Rosenbluth factor:
================================
	Block[ 0] 0 [-]
	Block[ 1] 0 [-]
	Block[ 2] 0 [-]
	Block[ 3] 0 [-]
	Block[ 4] 0 [-]
	------------------------------------------------------------------------------
	[propene] Average Widom Rosenbluth-weight:   0 +/- 0.000000 [-]

Average Widom chemical potential:
=================================
	Block[ 0] 0 [-]
	Block[ 1] 0 [-]
	Block[ 2] 0 [-]
	Block[ 3] 0 [-]
	Block[ 4] 0 [-]
	------------------------------------------------------------------------------
	[propene] Average chemical potential:   0 +/- 0.000000 [K]

Average Widom Ideal-gas contribution:
=====================================
	Block[ 0] 0 [-]
	Block[ 1] 0 [-]
	Block[ 2] 0 [-]
	Block[ 3] 0 [-]
	Block[ 4] 0 [-]
	------------------------------------------------------------------------------
	[propene] Average Widom Ideal-gas chemical potential:   0 +/- 0.000000 [-]

Average Widom excess contribution:
==================================
	Block[ 0] 0 [-]
	Block[ 1] 0 [-]
	Block[ 2] 0 [-]
	Block[ 3] 0 [-]
	Block[ 4] 0 [-]
	------------------------------------------------------------------------------
	[propene] Average Widom excess chemical potential:   0 +/- 0.000000 [-]

Average Gibbs Widom Rosenbluth factor:
======================================
	Block[ 0] 0 [-]
	Block[ 1] 0 [-]
	Block[ 2] 0 [-]
	Block[ 3] 0 [-]
	Block[ 4] 0 [-]
	------------------------------------------------------------------------------
	[propene] Average Gibbs Widom Rosenbluth-weight:   0 +/- 0.000000 [-]

Average Gibbs Widom chemical potential:
=======================================
	Block[ 0] 0 [-]
	Block[ 1] 0 [-]
	Block[ 2] 0 [-]
	Block[ 3] 0 [-]
	Block[ 4] 0 [-]
	------------------------------------------------------------------------------
	[propene] Average Gibbs chemical potential:   0 +/- 0.000000 [K]

Average Gibbs Widom Ideal-gas contribution:
===========================================
	Block[ 0] 0 [-]
	Block[ 1] 0 [-]
	Block[ 2] 0 [-]
	Block[ 3] 0 [-]
	Block[ 4] 0 [-]
	------------------------------------------------------------------------------
	[propene] Average Gibbs Ideal-gas chemical potential:   0 +/- 0.000000 [-]

Average Gibbs Widom excess contribution:
===========================================
	Block[ 0] 0 [-]
	Block[ 1] 0 [-]
	Block[ 2] 0 [-]
	Block[ 3] 0 [-]
	Block[ 4] 0 [-]
	------------------------------------------------------------------------------
	[propene] Average Gibbs excess chemical potential:   0 +/- 0.000000 [-]

Average Henry coefficient:
==========================
	Block[ 0] 0 [mol/kg/Pa]
	Block[ 1] 0 [mol/kg/Pa]
	Block[ 2] 0 [mol/kg/Pa]
	Block[ 3] 0 [mol/kg/Pa]
	Block[ 4] 0 [mol/kg/Pa]
	------------------------------------------------------------------------------
	[propene] Average Henry coefficient:  0 +/- 0 [mol/kg/Pa]

Average adsorption energy <U_gh>_1-<U_h>_0 obtained from Widom-insertion:
(Note: the total heat of adsorption is dH=<U_gh>_1-<U_h>_0 - <U_g> - RT)
=========================================================================

Simulation finished,  0 warnings


Tue Jan 11 01:52:15 2022
Simulation finished on Tuesday, January 11.
The end time was 01:52 AM.

